 Gaussian 16, Revision C.01,

 ----------------------------------------------------------------------
 # M062X/6-311+G* SCF=Tight INT(grid=ultrafine) OPT=CalcFC IOP(2/17=4)
 EmpiricalDispersion=GD3 SCRF=(SMD,Solvent=h2o) MaxDisk=10000MB
 ----------------------------------------------------------------------

 -------------------------------------------
 CP21CA_carboxy.M062X_6-311pGd_opt_water_GD3
 -------------------------------------------
 Symbolic Z-matrix:
 Charge = -1 Multiplicity = 1

 SCF Done:  E(RM062X) =  -1747.44671558     A.U. after   18 cycles
 SCF Done:  E(RM062X) =  -1747.47953995     A.U. after   14 cycles
 SCF Done:  E(RM062X) =  -1747.52605568     A.U. after   14 cycles
 SCF Done:  E(RM062X) =  -1747.54855622     A.U. after   14 cycles
 SCF Done:  E(RM062X) =  -1747.55105438     A.U. after   16 cycles
 SCF Done:  E(RM062X) =  -1747.53076367     A.U. after   15 cycles
 SCF Done:  E(RM062X) =  -1747.54933274     A.U. after   14 cycles
 SCF Done:  E(RM062X) =  -1747.55196662     A.U. after   12 cycles
 SCF Done:  E(RM062X) =  -1747.54172983     A.U. after   14 cycles
 SCF Done:  E(RM062X) =  -1747.55196191     A.U. after   15 cycles
 SCF Done:  E(RM062X) =  -1747.55646680     A.U. after   13 cycles
 SCF Done:  E(RM062X) =  -1747.55646830     A.U. after   10 cycles
 SCF Done:  E(RM062X) =  -1747.55646840     A.U. after   11 cycles
 SCF Done:  E(RM062X) =  -1747.55646815     A.U. after   10 cycles
 SCF Done:  E(RM062X) =  -1747.55646827     A.U. after    9 cycles
 SCF Done:  E(RM062X) =  -1747.55646840     A.U. after   12 cycles
 SCF Done:  E(RM062X) =  -1747.55646929     A.U. after   11 cycles
 SCF Done:  E(RM062X) =  -1747.55646934     A.U. after   11 cycles
 SCF Done:  E(RM062X) =  -1747.55646935     A.U. after    9 cycles
 Optimization completed.
    -- Stationary point found.
 Normal termination of Gaussian 16 at Mon Mar 22 18:08:41 2021.
 Gaussian 16:  ES64L-G16RevC.01  3-Jul-2019

 ----------------------------------------------------------------------
 # M062X/6-311+G* SCF=Tight INT(grid=ultrafine) EmpiricalDispersion=GD3
  SCRF=(SMD,Solvent=h2o) Freq=Noraman MaxDisk=10000MB geom=check guess=
 read IOP(2/17=4)
 ----------------------------------------------------------------------

 -------------------------------------------
 CP21CA_carboxy.M062X_6-311pGd_opt_water_GD3
 -------------------------------------------
 Structure from the checkpoint file:  "CP21CA_carboxy.M062X_6-311pGd_opt_water_GD3.chk"
 Charge = -1 Multiplicity = 1

                         Standard orientation:
 ---------------------------------------------------------------------
 Center     Atomic      Atomic             Coordinates (Angstroms)
 Number     Number       Type             X           Y           Z
 ---------------------------------------------------------------------
      1          6           0        0.288703   -0.580668   -0.436317
      2          7           0        1.671670   -0.568821   -0.341043
      3          6           0        2.495137   -1.632114   -0.116541
      4          8           0        2.165902   -2.796392    0.002549
      5          8           0        3.763078   -1.205163   -0.045043
      6          6           0        4.765413   -2.216310    0.185148
      7          6           0        6.108182   -1.523366    0.237567
      8          6           0        7.222675   -2.536009    0.476812
      9          6           0       -0.503585   -1.731710   -0.295309
     10          6           0       -1.880124   -1.636129   -0.406693
     11          6           0       -2.462729   -0.396745   -0.662194
     12          6           0       -1.694255    0.761781   -0.800121
     13          6           0       -0.324388    0.662043   -0.688897
     14          1           0        2.136367    0.354953   -0.411596
     15          1           0        4.721579   -2.943561   -0.628488
     16          1           0        4.539966   -2.724404    1.125219
     17          1           0        6.094993   -0.777441    1.036925
     18          1           0        6.273755   -0.991881   -0.703551
     19          1           0        7.077499   -3.065684    1.421754
     20          1           0        8.195097   -2.042539    0.516423
     21          1           0        7.257158   -3.279975   -0.323098
     22          1           0       -0.052634   -2.692062   -0.103301
     23          6           0       -4.698802    0.044357    1.022735
     24          1           0       -2.160291    1.719669   -0.999062
     25          1           0        0.293117    1.545487   -0.802867
     26          9           0       -4.132337    1.159078    1.454903
     27          9           0       -6.015105    0.168393    1.075895
     28          9           0       -4.319208   -0.967750    1.785456
     29         16           0       -4.200193   -0.276292   -0.746220
     30          8           0       -4.798436   -1.564042   -1.066892
     31          8           0       -4.604920    0.923064   -1.465076
     32          1           0       -2.492119   -2.524219   -0.299799
     33          8           0        1.917056    2.294711    1.367791
     34          8           0        2.914161    1.934998   -0.592092
     35          6           0        2.616169    2.671023    0.391196
     36          6           0        3.120319    4.111340    0.412544
     37          6           0        4.008668    4.508976   -0.755863
     38          1           0        3.642141    4.252291    1.363706
     39          1           0        2.235563    4.753892    0.462573
     40          1           0        4.905485    3.887642   -0.801946
     41          1           0        4.327000    5.549275   -0.658986
     42          1           0        3.483547    4.407264   -1.707669
 ---------------------------------------------------------------------

 SCF Done:  E(RM062X) =  -1747.55646935     A.U. after    1 cycles

 The electronic state is 1-A.
 Alpha  occ. eigenvalues --  -90.13673 -25.31548 -25.31527 -25.31526 -19.67262
 Alpha  occ. eigenvalues --  -19.65673 -19.65669 -19.61832 -19.57850 -19.57200
 Alpha  occ. eigenvalues --  -14.78706 -10.84105 -10.71228 -10.63628 -10.62026
 Alpha  occ. eigenvalues --  -10.59442 -10.58798 -10.57824 -10.57757 -10.56039
 Alpha  occ. eigenvalues --  -10.55830 -10.52908 -10.52375 -10.51792 -10.51319
 Alpha  occ. eigenvalues --   -8.48085  -6.40296  -6.40225  -6.40148  -1.51277
 Alpha  occ. eigenvalues --   -1.41826  -1.41813  -1.27550  -1.25276  -1.16824
 Alpha  occ. eigenvalues --   -1.16441  -1.15385  -1.07218  -1.06393  -0.99106
 Alpha  occ. eigenvalues --   -0.91059  -0.89014  -0.87443  -0.86488  -0.85634
 Alpha  occ. eigenvalues --   -0.81096  -0.78248  -0.74550  -0.73519  -0.73432
 Alpha  occ. eigenvalues --   -0.72989  -0.71972  -0.69234  -0.67325  -0.66779
 Alpha  occ. eigenvalues --   -0.64366  -0.63293  -0.61478  -0.61072  -0.60412
 Alpha  occ. eigenvalues --   -0.58956  -0.58825  -0.58139  -0.57378  -0.57099
 Alpha  occ. eigenvalues --   -0.56895  -0.56105  -0.54902  -0.53773  -0.53539
 Alpha  occ. eigenvalues --   -0.53284  -0.52925  -0.52661  -0.51465  -0.51217
 Alpha  occ. eigenvalues --   -0.50173  -0.48947  -0.48504  -0.46237  -0.46140
 Alpha  occ. eigenvalues --   -0.45210  -0.44500  -0.44358  -0.44226  -0.43183
 Alpha  occ. eigenvalues --   -0.42514  -0.42094  -0.41491  -0.40659  -0.39957
 Alpha  occ. eigenvalues --   -0.39773  -0.39544  -0.39315  -0.37919  -0.37530
 Alpha  occ. eigenvalues --   -0.33849  -0.33352  -0.32953  -0.32068  -0.29636
 Alpha virt. eigenvalues --   -0.03318   0.00012   0.01110   0.02090   0.02559
 Alpha virt. eigenvalues --    0.02945   0.03183   0.03470   0.03794   0.04013
 Alpha virt. eigenvalues --    0.04432   0.05007   0.05068   0.05309   0.05999

 Mulliken charges:
               1
     1  C   -0.442736
     2  N   -0.465982
     3  C    0.188805
     4  O   -0.420179
     5  O   -0.096693
     6  C   -0.382596
     7  C   -0.133064
     8  C   -1.119463
     9  C   -0.452949
    10  C   -0.383348
    11  C    0.015623
    12  C   -0.184616
    13  C   -0.368393
    14  H    0.512643
    15  H    0.282929
    16  H    0.289324
    17  H    0.271492
    18  H    0.273364
    19  H    0.272490
    20  H    0.284009
    21  H    0.273397
    22  H    0.320090
    23  C    0.013571
    24  H    0.332195
    25  H    0.325354
    26  F   -0.029748
    27  F   -0.068347
    28  F   -0.032977
    29  S    0.910135
    30  O   -0.183328
    31  O   -0.185402
    32  H    0.333144
    33  O   -0.582583
    34  O   -0.519610
    35  C    0.158200
    36  C   -0.439369
    37  C   -0.957000
    38  H    0.288151
    39  H    0.289077
    40  H    0.268053
    41  H    0.276775
    42  H    0.269562
 Sum of Mulliken charges =  -1.00000

 Dipole moment (field-independent basis, Debye):
    X=              0.6107    Y=             -4.1885    Z=              0.3208  Tot=              4.2449
 Quadrupole moment (field-independent basis, Debye-Ang):
   XX=           -201.6790   YY=           -170.5800   ZZ=           -169.2628
   XY=            -18.0956   XZ=            -13.0850   YZ=             -6.3723

  Exact polarizability:     379.823     -12.141     306.362       2.974      -9.926     231.997
 Approx polarizability:     297.112      -3.753     268.930       2.632      -9.108     204.052

                      1                      2                      3
                      A                      A                      A
 Frequencies --     14.2175                17.2816                23.4071
 Red. masses --      5.8011                 5.6554                 4.5086
 Frc consts  --      0.0007                 0.0010                 0.0015
 IR Inten    --      0.6577                 2.1843                 3.2234

                      4                      5                      6
                      A                      A                      A
 Frequencies --     26.7038                35.4386                41.6300
 Red. masses --      4.4063                 3.6560                 3.3902
 Frc consts  --      0.0019                 0.0027                 0.0035
 IR Inten    --      2.7309                 3.2538                 6.7667

                      7                      8                      9
                      A                      A                      A
 Frequencies --     44.3275                47.1769                54.2733
 Red. masses --      3.6550                 7.5785                 4.3735
 Frc consts  --      0.0042                 0.0099                 0.0076
 IR Inten    --      5.9348                 1.4277                 1.7441

                     10                     11                     12
                      A                      A                      A
 Frequencies --     58.7330                71.2736                83.3206
 Red. masses --      4.5148                 4.3585                 9.0475
 Frc consts  --      0.0092                 0.0130                 0.0370
 IR Inten    --      3.5595                 9.5503                 5.2065

                     13                     14                     15
                      A                      A                      A
 Frequencies --     91.6538                99.8193               109.4470
 Red. masses --      3.4498                 5.9881                 6.1576
 Frc consts  --      0.0171                 0.0352                 0.0435
 IR Inten    --      2.9890                15.5203                20.8674

                     16                     17                     18
                      A                      A                      A
 Frequencies --    139.4813               154.8628               182.2899
 Red. masses --      6.4579                 4.4144                 5.1284
 Frc consts  --      0.0740                 0.0624                 0.1004
 IR Inten    --      7.4791                 8.6675                 3.9067

                     19                     20                     21
                      A                      A                      A
 Frequencies --    190.0682               197.1217               222.0342
 Red. masses --      7.4492                13.0540                 5.2373
 Frc consts  --      0.1586                 0.2989                 0.1521
 IR Inten    --      8.6449                 3.9626                 3.0930

                     22                     23                     24
                      A                      A                      A
 Frequencies --    238.3971               246.2410               256.2488
 Red. masses --      1.1335                 1.0946                10.9131
 Frc consts  --      0.0380                 0.0391                 0.4222
 IR Inten    --      0.3129                 2.1982                14.3295

                     25                     26                     27
                      A                      A                      A
 Frequencies --    305.5897               309.9160               311.5353
 Red. masses --      4.4640                 6.9582                14.0348
 Frc consts  --      0.2456                 0.3938                 0.8025
 IR Inten    --     20.3366                 1.6783                 0.9100

                     28                     29                     30
                      A                      A                      A
 Frequencies --    331.9001               353.7047               358.6509
 Red. masses --      6.5835                 5.0376                 8.4780
 Frc consts  --      0.4273                 0.3713                 0.6425
 IR Inten    --     11.5567                15.5387                11.5977

                     31                     32                     33
                      A                      A                      A
 Frequencies --    381.1606               418.3822               446.6691
 Red. masses --      8.1993                 2.9791                 8.0603
 Frc consts  --      0.7018                 0.3072                 0.9475
 IR Inten    --     37.4577                 0.0315                10.1342

                     34                     35                     36
                      A                      A                      A
 Frequencies --    480.1303               509.9772               512.7449
 Red. masses --      6.1439                 5.3115                 3.3125
 Frc consts  --      0.8345                 0.8139                 0.5131
 IR Inten    --     64.3381                14.5838                 6.8126

                     37                     38                     39
                      A                      A                      A
 Frequencies --    528.3713               564.4624               571.0258
 Red. masses --     10.5088                17.2670                 8.6008
 Frc consts  --      1.7286                 3.2414                 1.6524
 IR Inten    --     47.8692                 0.0581               144.0888

                     40                     41                     42
                      A                      A                      A
 Frequencies --    583.6563               601.1372               636.1580
 Red. masses --      1.9084                10.6907                 7.1678
 Frc consts  --      0.3830                 2.2762                 1.7091
 IR Inten    --      7.2709               311.3094                 1.0094

                     43                     44                     45
                      A                      A                      A
 Frequencies --    654.5809               713.2536               727.7577
 Red. masses --      4.6832                 6.5275                 3.7917
 Frc consts  --      1.1823                 1.9565                 1.1832
 IR Inten    --     69.0663               148.6697                10.1746

                     46                     47                     48
                      A                      A                      A
 Frequencies --    765.3862               777.4627               789.2233
 Red. masses --      1.1125                 8.7332                14.6051
 Frc consts  --      0.3840                 3.1102                 5.3599
 IR Inten    --     17.7268                28.1458                32.9369

                     49                     50                     51
                      A                      A                      A
 Frequencies --    790.9805               823.0670               833.9665
 Red. masses --      8.3042                 1.5211                 1.2511
 Frc consts  --      3.0611                 0.6071                 0.5127
 IR Inten    --     46.7783                32.7991                11.6349

                     52                     53                     54
                      A                      A                      A
 Frequencies --    852.5177               865.0040               873.0185
 Red. masses --      1.7459                 2.2221                 4.0399
 Frc consts  --      0.7476                 0.9796                 1.8141
 IR Inten    --     96.2249               111.0062                16.8651

                     55                     56                     57
                      A                      A                      A
 Frequencies --    906.7004               914.3123               932.6704
 Red. masses --      1.1598                 1.4556                 1.6092
 Frc consts  --      0.5617                 0.7169                 0.8247
 IR Inten    --     14.2089                90.7502                17.4700

                     58                     59                     60
                      A                      A                      A
 Frequencies --    983.7363              1000.3591              1011.2364
 Red. masses --      1.3078                 1.3551                 7.4191
 Frc consts  --      0.7457                 0.7990                 4.4700
 IR Inten    --      2.6680                 0.0739                 8.6841

                     61                     62                     63
                      A                      A                      A
 Frequencies --   1020.7639              1025.9089              1074.7317
 Red. masses --      3.7587                 1.6634                 2.4685
 Frc consts  --      2.3075                 1.0315                 1.6799
 IR Inten    --     24.3893                23.5732                 6.2520

                     64                     65                     66
                      A                      A                      A
 Frequencies --   1079.6757              1108.1894              1110.1746
 Red. masses --      5.1649                 7.0647                 2.0600
 Frc consts  --      3.5473                 5.1118                 1.4959
 IR Inten    --    239.5483               831.3374                13.2857

                     67                     68                     69
                      A                      A                      A
 Frequencies --   1110.6069              1135.1010              1156.7942
 Red. masses --      1.9968                 3.2396                 1.3378
 Frc consts  --      1.4511                 2.4593                 1.0547
 IR Inten    --     15.1515               550.9466                 7.3688

                     70                     71                     72
                      A                      A                      A
 Frequencies --   1164.5538              1191.2249              1204.8379
 Red. masses --      2.2501                 1.6600                 2.0898
 Frc consts  --      1.7979                 1.3878                 1.7873
 IR Inten    --     17.1208                 1.2746               307.1100

                     73                     74                     75
                      A                      A                      A
 Frequencies --   1223.2164              1240.1705              1242.0012
 Red. masses --      2.5244                12.8603                13.1868
 Frc consts  --      2.2254                11.6537                11.9849
 IR Inten    --    139.8016               459.8441               290.1699

                     76                     77                     78
                      A                      A                      A
 Frequencies --   1267.8769              1287.8767              1297.6968
 Red. masses --      3.6661                 1.1829                 1.1669
 Frc consts  --      3.4722                 1.1560                 1.1578
 IR Inten    --   1309.8034                 2.7249                 0.4342

                     79                     80                     81
                      A                      A                      A
 Frequencies --   1304.6232              1311.8891              1335.1115
 Red. masses --      9.0578                 4.2420                 1.0671
 Frc consts  --      9.0833                 4.3014                 1.1207
 IR Inten    --    494.2817               127.8940                 1.8026

                     82                     83                     84
                      A                      A                      A
 Frequencies --   1336.6998              1338.0389              1344.4785
 Red. masses --      1.7001                 1.4311                 1.4857
 Frc consts  --      1.7897                 1.5096                 1.5823
 IR Inten    --     95.1806                17.0385                20.8115

                     85                     86                     87
                      A                      A                      A
 Frequencies --   1370.7724              1416.4173              1417.1088
 Red. masses --      4.4875                 1.2757                 1.3745
 Frc consts  --      4.9680                 1.5080                 1.6263
 IR Inten    --    424.7575                 9.8368                70.9835

                     88                     89                     90
                      A                      A                      A
 Frequencies --   1442.2165              1443.7789              1459.3422
 Red. masses --      2.0357                 1.5463                 3.0312
 Frc consts  --      2.4947                 1.8991                 3.8035
 IR Inten    --    357.5159                16.2729                94.8481

                     91                     92                     93
                      A                      A                      A
 Frequencies --   1463.4395              1484.5824              1499.9444
 Red. masses --      1.6538                 1.0622                 1.0377
 Frc consts  --      2.0868                 1.3793                 1.3756
 IR Inten    --     93.8864                 0.7468                13.9673

                     94                     95                     96
                      A                      A                      A
 Frequencies --   1500.8636              1505.2733              1509.0136
 Red. masses --      1.0378                 1.0907                 1.0904
 Frc consts  --      1.3774                 1.4561                 1.4630
 IR Inten    --     13.7690                86.4838                 4.4095

                     97                     98                     99
                      A                      A                      A
 Frequencies --   1523.5812              1535.9263              1542.2107
 Red. masses --      1.0953                 6.8441                 2.5772
 Frc consts  --      1.4981                 9.5128                 3.6115
 IR Inten    --     26.1876              1113.2596               286.8496

                    100                    101                    102
                      A                      A                      A
 Frequencies --   1601.4783              1647.2281              1677.8975
 Red. masses --      2.9444                 5.9621                 2.2552
 Frc consts  --      4.4493                 9.5314                 3.7408
 IR Inten    --    838.8866               523.6006               151.0514

                    103                    104                    105
                      A                      A                      A
 Frequencies --   1743.3353              3070.2268              3073.7711
 Red. masses --      7.6782                 1.0371                 1.0369
 Frc consts  --     13.7490                 5.7597                 5.7723
 IR Inten    --    825.1861                31.6529                48.2908

                    106                    107                    108
                      A                      A                      A
 Frequencies --   3077.9044              3079.9065              3095.9988
 Red. masses --      1.0624                 1.0602                 1.0569
 Frc consts  --      5.9301                 5.9254                 5.9688
 IR Inten    --     24.4871                18.8281                83.3330

                    109                    110                    111
                      A                      A                      A
 Frequencies --   3111.3049              3115.5070              3115.6385
 Red. masses --      1.1011                 1.0927                 1.1043
 Frc consts  --      6.2802                 6.2491                 6.3158
 IR Inten    --     16.4055              1857.4241                 1.3129

                    112                    113                    114
                      A                      A                      A
 Frequencies --   3138.1466              3141.5317              3147.5192
 Red. masses --      1.1049                 1.1024                 1.1037
 Frc consts  --      6.4110                 6.4101                 6.4420
 IR Inten    --     30.5048                34.5935                56.6280

                    115                    116                    117
                      A                      A                      A
 Frequencies --   3149.1741              3153.7218              3233.0683
 Red. masses --      1.1023                 1.1101                 1.0899
 Frc consts  --      6.4409                 6.5049                 6.7122
 IR Inten    --     43.8346                85.4204                 1.8129

                    118                    119                    120
                      A                      A                      A
 Frequencies --   3237.2319              3243.9145              3289.8856
 Red. masses --      1.0925                 1.0967                 1.0935
 Frc consts  --      6.7454                 6.7995                 6.9733
 IR Inten    --      2.5709                 3.4975                 9.5421

 - Thermochemistry -
 -------------------
 Temperature   298.150 Kelvin.  Pressure   1.00000 Atm.
 Atom     1 has atomic number  6 and mass  12.00000

 Molecular mass:   384.07287 amu.
 Principal axes and moments of inertia in atomic units:
                           1         2         3
     Eigenvalues --  5977.83632********************
           X            0.99998  -0.00179   0.00553
           Y            0.00186   0.99991  -0.01308
           Z           -0.00550   0.01309   0.99990
 This molecule is an asymmetric top.
 Rotational symmetry number  1.
 Warning -- assumption of classical behavior for rotation
           may cause significant error
 Rotational temperatures (Kelvin)      0.01449     0.00400     0.00339
 Rotational constants (GHZ):           0.30191     0.08330     0.07067
 Zero-point vibrational energy     820859.3 (Joules/Mol)
                                  196.19008 (Kcal/Mol)
 Warning -- explicit consideration of  41 degrees of freedom as
           vibrations may cause significant error
 Vibrational temperatures:     20.46    24.86    33.68    38.42    50.99
          (Kelvin)             59.90    63.78    67.88    78.09    84.50
                              102.55   119.88   131.87   143.62   157.47
                              200.68   222.81   262.27   273.47   283.61
                              319.46   343.00   354.29   368.68   439.68
                              445.90   448.23   477.53   508.90   516.02
                              548.41   601.96   642.66   690.80   733.74
                              737.73   760.21   812.14   821.58   839.75
                              864.90   915.29   941.80  1026.21  1047.08
                             1101.22  1118.60  1135.52  1138.04  1184.21
                             1199.89  1226.58  1244.55  1256.08  1304.54
                             1315.49  1341.90  1415.38  1439.29  1454.94
                             1468.65  1476.05  1546.30  1553.41  1594.44
                             1597.29  1597.92  1633.16  1664.37  1675.53
                             1713.91  1733.49  1759.94  1784.33  1786.96
                             1824.19  1852.97  1867.10  1877.06  1887.52
                             1920.93  1923.21  1925.14  1934.40  1972.24
                             2037.91  2038.90  2075.03  2077.28  2099.67
                             2105.56  2135.98  2158.09  2159.41  2165.75
                             2171.13  2192.09  2209.86  2218.90  2304.17
                             2369.99  2414.12  2508.27  4417.37  4422.47
                             4428.42  4431.30  4454.45  4476.47  4482.52
                             4482.71  4515.09  4519.96  4528.58  4530.96
                             4537.50  4651.66  4657.65  4667.27  4733.41

 Zero-point correction=                           0.312649 (Hartree/Particle)
 Thermal correction to Energy=                    0.339608
 Thermal correction to Enthalpy=                  0.340552
 Thermal correction to Gibbs Free Energy=         0.248316
 Sum of electronic and zero-point Energies=          -1747.243821
 Sum of electronic and thermal Energies=             -1747.216862
 Sum of electronic and thermal Enthalpies=           -1747.215918
 Sum of electronic and thermal Free Energies=        -1747.308154

                     E (Thermal)             CV                S
                      KCal/Mol        Cal/Mol-Kelvin    Cal/Mol-Kelvin
 Total                  213.107             93.385            194.127
 Electronic               0.000              0.000              0.000
 Translational            0.889              2.981             43.729
 Rotational               0.889              2.981             36.446
 Vibrational            211.330             87.423            113.952
 Vibration     1          0.593              1.986              7.312
 Vibration     2          0.593              1.986              6.924
 Vibration     3          0.593              1.985              6.322
 Vibration     4          0.593              1.984              6.060
 Vibration     5          0.594              1.982              5.499
 Vibration     6          0.594              1.981              5.180
 Vibration     7          0.595              1.980              5.056
 Vibration     8          0.595              1.979              4.932
 Vibration     9          0.596              1.976              4.655
 Vibration    10          0.596              1.974              4.499
 Vibration    11          0.598              1.968              4.118
 Vibration    12          0.600              1.961              3.811
 Vibration    13          0.602              1.955              3.624
 Vibration    14          0.604              1.949              3.458
 Vibration    15          0.606              1.942              3.279
 Vibration    16          0.615              1.914              2.811
 Vibration    17          0.620              1.897              2.612
 Vibration    18          0.630              1.864              2.305
 Vibration    19          0.633              1.854              2.227
 Vibration    20          0.637              1.844              2.160
 Vibration    21          0.648              1.808              1.942
 Vibration    22          0.656              1.782              1.815
 Vibration    23          0.661              1.769              1.757
 Vibration    24          0.666              1.752              1.687
 Vibration    25          0.696              1.663              1.386
 Vibration    26          0.699              1.655              1.363
 Vibration    27          0.700              1.652              1.354
 Vibration    28          0.714              1.612              1.251
 Vibration    29          0.730              1.568              1.150
 Vibration    30          0.733              1.557              1.128
 Vibration    31          0.751              1.510              1.035
 Vibration    32          0.781              1.430              0.897
 Vibration    33          0.806              1.368              0.806
 Vibration    34          0.836              1.294              0.710
 Vibration    35          0.865              1.228              0.634
 Vibration    36          0.868              1.222              0.627
 Vibration    37          0.883              1.187              0.591
 Vibration    38          0.920              1.108              0.515
 Vibration    39          0.927              1.094              0.502
 Vibration    40          0.941              1.067              0.479
 Vibration    41          0.959              1.029              0.448

                           ! Non-Optimized Parameters !
 Normal termination of Gaussian 16 at Tue Mar 23 05:08:10 2021.
