 Gaussian 16, Revision C.01,

 ----------------------------------------------------------------------
 # M062X/6-311+G* SCF=Tight INT(grid=ultrafine) OPT=CalcFC IOP(2/17=4)
 EmpiricalDispersion=GD3 SCRF=(SMD,Solvent=n-Pentadecane) MaxDisk=10000
 MB
 ----------------------------------------------------------------------

 -------------------------------------------------
 CP21CA_carboxy.M062X_6-311pGd_opt_Pentadecane_GD3
 -------------------------------------------------
 Symbolic Z-matrix:
 Charge = -1 Multiplicity = 1

 SCF Done:  E(RM062X) =  -1747.39357677     A.U. after   19 cycles
 SCF Done:  E(RM062X) =  -1747.42776991     A.U. after   15 cycles
 SCF Done:  E(RM062X) =  -1747.47874955     A.U. after   15 cycles
 SCF Done:  E(RM062X) =  -1747.49593581     A.U. after   14 cycles
 SCF Done:  E(RM062X) =  -1747.50694861     A.U. after   15 cycles
 SCF Done:  E(RM062X) =  -1747.49239221     A.U. after   18 cycles
 SCF Done:  E(RM062X) =  -1747.51113457     A.U. after   16 cycles
 SCF Done:  E(RM062X) =  -1747.51110997     A.U. after   18 cycles
 SCF Done:  E(RM062X) =  -1747.51281391     A.U. after   15 cycles
 SCF Done:  E(RM062X) =  -1747.51263397     A.U. after   16 cycles
 SCF Done:  E(RM062X) =  -1747.51295529     A.U. after   11 cycles
 SCF Done:  E(RM062X) =  -1747.51295518     A.U. after   11 cycles
 SCF Done:  E(RM062X) =  -1747.51295716     A.U. after   11 cycles
 SCF Done:  E(RM062X) =  -1747.51295885     A.U. after   12 cycles
 SCF Done:  E(RM062X) =  -1747.51296078     A.U. after   11 cycles
 SCF Done:  E(RM062X) =  -1747.51296399     A.U. after   11 cycles
 SCF Done:  E(RM062X) =  -1747.51296636     A.U. after   11 cycles
 SCF Done:  E(RM062X) =  -1747.51296669     A.U. after   11 cycles
 SCF Done:  E(RM062X) =  -1747.51296666     A.U. after   10 cycles
 Optimization completed.
    -- Stationary point found.
 Normal termination of Gaussian 16 at Mon Mar 22 13:09:11 2021.
 Gaussian 16:  ES64L-G16RevC.01  3-Jul-2019

 ----------------------------------------------------------------------
 # M062X/6-311+G* SCF=Tight INT(grid=ultrafine) EmpiricalDispersion=GD3
  SCRF=(SMD,Solvent=n-Pentadecane) Freq=Noraman MaxDisk=10000MB geom=ch
 eck guess=read IOP(2/17=4)
 ----------------------------------------------------------------------

 -------------------------------------------------
 CP21CA_carboxy.M062X_6-311pGd_opt_Pentadecane_GD3
 -------------------------------------------------
 Structure from the checkpoint file:  "CP21CA_carboxy.M062X_6-311pGd_opt_Pentadecane_GD3.chk"
 Charge = -1 Multiplicity = 1

                         Standard orientation:
 ---------------------------------------------------------------------
 Center     Atomic      Atomic             Coordinates (Angstroms)
 Number     Number       Type             X           Y           Z
 ---------------------------------------------------------------------
      1          6           0        0.263237   -0.505891   -0.315086
      2          7           0        1.638307   -0.530217   -0.157720
      3          6           0        2.420438   -1.645872   -0.097002
      4          8           0        2.058033   -2.802284   -0.151929
      5          8           0        3.707024   -1.285646    0.038748
      6          6           0        4.648699   -2.355301    0.126960
      7          6           0        6.024372   -1.738514    0.267014
      8          6           0        7.099760   -2.814755    0.371443
      9          6           0       -0.537412   -1.655142   -0.459639
     10          6           0       -1.906358   -1.524553   -0.615923
     11          6           0       -2.481028   -0.255386   -0.632734
     12          6           0       -1.700950    0.896841   -0.490674
     13          6           0       -0.337091    0.770721   -0.332828
     14          1           0        2.121791    0.401201   -0.080865
     15          1           0        4.577270   -2.975941   -0.770984
     16          1           0        4.402550   -2.983918    0.987768
     17          1           0        6.036481   -1.097046    1.152218
     18          1           0        6.211464   -1.091185   -0.594009
     19          1           0        6.935933   -3.458087    1.240497
     20          1           0        8.092017   -2.370642    0.471857
     21          1           0        7.111565   -3.453519   -0.516128
     22          1           0       -0.085735   -2.634388   -0.453104
     23          6           0       -4.753479   -0.140595    1.037809
     24          1           0       -2.160256    1.878689   -0.510481
     25          1           0        0.280198    1.662787   -0.225919
     26          9           0       -4.235790    0.887007    1.695905
     27          9           0       -6.077791   -0.065636    1.093041
     28          9           0       -4.363042   -1.266931    1.622102
     29         16           0       -4.215458   -0.113168   -0.748802
     30          8           0       -4.798019   -1.319910   -1.309522
     31          8           0       -4.603204    1.204047   -1.218392
     32          1           0       -2.528056   -2.404555   -0.734402
     33          8           0        1.333402    3.461477   -0.052151
     34          8           0        2.899144    1.859586    0.018566
     35          6           0        2.511494    3.060317   -0.013301
     36          6           0        3.608754    4.140112   -0.022141
     37          6           0        5.019953    3.623054    0.217043
     38          1           0        3.331913    4.892419    0.722328
     39          1           0        3.542778    4.646534   -0.991584
     40          1           0        5.094857    3.124049    1.185592
     41          1           0        5.750703    4.437780    0.195214
     42          1           0        5.299939    2.889672   -0.540766
 ---------------------------------------------------------------------

 SCF Done:  E(RM062X) =  -1747.51296666     A.U. after    2 cycles

 The electronic state is 1-A.
 Alpha  occ. eigenvalues --  -90.08178 -25.26990 -25.26983 -25.26923 -19.61781
 Alpha  occ. eigenvalues --  -19.60065 -19.60037 -19.55977 -19.49110 -19.48298
 Alpha  occ. eigenvalues --  -14.72580 -10.79093 -10.65242 -10.56429 -10.55105
 Alpha  occ. eigenvalues --  -10.55100 -10.54101 -10.52863 -10.52362 -10.50684
 Alpha  occ. eigenvalues --  -10.49788 -10.49752 -10.49513 -10.46148 -10.46057
 Alpha  occ. eigenvalues --   -8.42564  -6.34765  -6.34722  -6.34631  -1.46594
 Alpha  occ. eigenvalues --   -1.37134  -1.37126  -1.22058  -1.19896  -1.11323
 Alpha  occ. eigenvalues --   -1.09838  -1.07830  -1.01215  -0.98122  -0.93645
 Alpha  occ. eigenvalues --   -0.86302  -0.84758  -0.82045  -0.81583  -0.79409
 Alpha  occ. eigenvalues --   -0.76595  -0.73750  -0.69684  -0.68732  -0.68618
 Alpha  occ. eigenvalues --   -0.67694  -0.65651  -0.64906  -0.62964  -0.61521
 Alpha  occ. eigenvalues --   -0.58935  -0.57944  -0.56534  -0.56443  -0.55252
 Alpha  occ. eigenvalues --   -0.54343  -0.52914  -0.52459  -0.52342  -0.51688
 Alpha  occ. eigenvalues --   -0.51551  -0.50388  -0.50131  -0.49067  -0.48157
 Alpha  occ. eigenvalues --   -0.48037  -0.46534  -0.46137  -0.45932  -0.45075
 Alpha  occ. eigenvalues --   -0.44188  -0.43748  -0.41858  -0.41610  -0.40719
 Alpha  occ. eigenvalues --   -0.39640  -0.38880  -0.38753  -0.38643  -0.38329
 Alpha  occ. eigenvalues --   -0.37415  -0.36810  -0.36484  -0.36376  -0.35393
 Alpha  occ. eigenvalues --   -0.34747  -0.33918  -0.33317  -0.33009  -0.31598
 Alpha  occ. eigenvalues --   -0.28182  -0.24697  -0.24322  -0.23775  -0.23034
 Alpha virt. eigenvalues --    0.01895   0.04870   0.05228   0.05451   0.06263
 Alpha virt. eigenvalues --    0.06604   0.07006   0.07247   0.07459   0.07665
 Alpha virt. eigenvalues --    0.08001   0.08863   0.09306   0.09485   0.09795

 Mulliken charges:
               1
     1  C   -0.360419
     2  N   -0.608046
     3  C    0.026946
     4  O   -0.338597
     5  O   -0.033534
     6  C   -0.272814
     7  C   -0.147302
     8  C   -1.111800
     9  C   -0.398002
    10  C   -0.226166
    11  C   -0.043746
    12  C   -0.059568
    13  C   -0.713533
    14  H    0.618230
    15  H    0.255992
    16  H    0.256206
    17  H    0.270983
    18  H    0.270783
    19  H    0.258574
    20  H    0.272519
    21  H    0.258426
    22  H    0.300012
    23  C    0.017655
    24  H    0.304078
    25  H    0.411137
    26  F   -0.040501
    27  F   -0.083680
    28  F   -0.047976
    29  S    0.788209
    30  O   -0.124404
    31  O   -0.099275
    32  H    0.298128
    33  O   -0.460491
    34  O   -0.500907
    35  C    0.059471
    36  C   -0.291208
    37  C   -0.964076
    38  H    0.249101
    39  H    0.256062
    40  H    0.257708
    41  H    0.239654
    42  H    0.256172
 Sum of Mulliken charges =  -1.00000

 Dipole moment (field-independent basis, Debye):
    X=              2.0651    Y=             -6.7897    Z=              2.0922  Tot=              7.3988
 Quadrupole moment (field-independent basis, Debye-Ang):
   XX=           -208.6001   YY=           -193.5291   ZZ=           -160.9616
   XY=            -15.2474   XZ=            -10.3705   YZ=             -0.5214

  Exact polarizability:     344.054     -15.444     248.723      12.352       0.451     163.236
 Approx polarizability:     307.680     -12.711     281.145      12.735       1.143     191.972

                      1                      2                      3
                      A                      A                      A
 Frequencies --     13.6909                27.3952                36.6053
 Red. masses --      3.9193                 7.7174                 4.8540
 Frc consts  --      0.0004                 0.0034                 0.0038
 IR Inten    --      0.6700                 0.3309                 0.5687

                      4                      5                      6
                      A                      A                      A
 Frequencies --     38.6154                46.8492                51.8123
 Red. masses --     10.4352                 4.8037                 4.5163
 Frc consts  --      0.0092                 0.0062                 0.0071
 IR Inten    --      0.2828                 2.6919                 2.3021

                      7                      8                      9
                      A                      A                      A
 Frequencies --     58.2506                65.2740                75.2237
 Red. masses --      2.9371                 4.3672                 2.5965
 Frc consts  --      0.0059                 0.0110                 0.0087
 IR Inten    --      0.0596                 0.7217                 0.3481

                     10                     11                     12
                      A                      A                      A
 Frequencies --     86.6672                91.2643                95.5503
 Red. masses --      3.7768                 4.6264                 5.2787
 Frc consts  --      0.0167                 0.0227                 0.0284
 IR Inten    --      4.8232                 0.2100                 8.9943

                     13                     14                     15
                      A                      A                      A
 Frequencies --    110.0777               130.0741               144.1295
 Red. masses --      4.5924                 5.8710                 7.2482
 Frc consts  --      0.0328                 0.0585                 0.0887
 IR Inten    --      7.0894                24.5651                 1.7727

                     16                     17                     18
                      A                      A                      A
 Frequencies --    150.8916               158.1686               190.3218
 Red. masses --      7.4282                 4.8894                 6.0874
 Frc consts  --      0.0996                 0.0721                 0.1299
 IR Inten    --     16.0077                 4.1796                 1.1158

                     19                     20                     21
                      A                      A                      A
 Frequencies --    197.3421               206.5890               228.8437
 Red. masses --      7.1643                15.0646                 2.0083
 Frc consts  --      0.1644                 0.3788                 0.0620
 IR Inten    --      3.7991                 1.7860                 0.7124

                     22                     23                     24
                      A                      A                      A
 Frequencies --    232.8453               233.8589               260.7147
 Red. masses --      1.1859                 1.6363                11.2764
 Frc consts  --      0.0379                 0.0527                 0.4516
 IR Inten    --      0.8392                 3.1508                 5.7925

                     25                     26                     27
                      A                      A                      A
 Frequencies --    307.0866               311.9453               315.1485
 Red. masses --      3.7633                 8.7048                12.2450
 Frc consts  --      0.2091                 0.4991                 0.7165
 IR Inten    --     22.4036                 0.0619                 1.0556

                     28                     29                     30
                      A                      A                      A
 Frequencies --    339.7730               357.4573               363.0916
 Red. masses --      6.3714                 5.5530                 7.9596
 Frc consts  --      0.4334                 0.4180                 0.6183
 IR Inten    --      9.6902                 5.7812                16.5724

                     31                     32                     33
                      A                      A                      A
 Frequencies --    389.1539               436.7132               451.3571
 Red. masses --      8.0001                 3.1701                 8.0078
 Frc consts  --      0.7138                 0.3562                 0.9612
 IR Inten    --     32.8877                 0.0133                 4.1877

                     34                     35                     36
                      A                      A                      A
 Frequencies --    486.1116               510.4011               527.3226
 Red. masses --      5.8700                 5.2059                 3.9741
 Frc consts  --      0.8173                 0.7990                 0.6511
 IR Inten    --     37.5684                13.6064                 6.0883

                     37                     38                     39
                      A                      A                      A
 Frequencies --    533.3187               565.7022               582.4825
 Red. masses --     11.5400                17.3253                 7.9213
 Frc consts  --      1.9339                 3.2667                 1.5835
 IR Inten    --     23.4966                 0.0191                70.9250

                     40                     41                     42
                      A                      A                      A
 Frequencies --    589.9720               611.9789               638.9415
 Red. masses --      2.1185                10.1033                 7.1533
 Frc consts  --      0.4344                 2.2294                 1.7206
 IR Inten    --      8.3989               250.7410                 3.5693

                     43                     44                     45
                      A                      A                      A
 Frequencies --    662.0685               718.8625               742.9852
 Red. masses --      4.2806                 7.2583                 4.3094
 Frc consts  --      1.1055                 2.2099                 1.4016
 IR Inten    --     33.5657               117.7051                 3.4245

                     46                     47                     48
                      A                      A                      A
 Frequencies --    762.6694               780.2257               786.3802
 Red. masses --      1.0959                 9.7236                11.9703
 Frc consts  --      0.3756                 3.4875                 4.3613
 IR Inten    --      4.3529                24.2808                42.9339

                     49                     50                     51
                      A                      A                      A
 Frequencies --    802.2574               823.7464               862.9850
 Red. masses --      8.8179                 1.4701                 1.4240
 Frc consts  --      3.3438                 0.5877                 0.6248
 IR Inten    --     18.2671                 9.9505                31.2842

                     52                     53                     54
                      A                      A                      A
 Frequencies --    876.2810               885.3345               905.9482
 Red. masses --      5.2628                 4.0809                 1.1516
 Frc consts  --      2.3810                 1.8846                 0.5569
 IR Inten    --     55.7995                39.7193                 3.1167

                     55                     56                     57
                      A                      A                      A
 Frequencies --    913.7859               933.3079              1001.6362
 Red. masses --      1.3117                 1.6394                 1.3141
 Frc consts  --      0.6453                 0.8414                 0.7768
 IR Inten    --     22.5927                12.7845                 2.3702

                     58                     59                     60
                      A                      A                      A
 Frequencies --   1021.2584              1023.3198              1027.2877
 Red. masses --      2.5103                 2.2271                 6.2221
 Frc consts  --      1.5426                 1.3741                 3.8688
 IR Inten    --     21.6586                16.9682                 6.6630

                     61                     62                     63
                      A                      A                      A
 Frequencies --   1044.3863              1075.4414              1077.1289
 Red. masses --      1.0999                 1.2227                 2.4985
 Frc consts  --      0.7068                 0.8332                 1.7079
 IR Inten    --     56.0901                40.7717                 2.3372

                     64                     65                     66
                      A                      A                      A
 Frequencies --   1094.9066              1105.7327              1108.1708
 Red. masses --      4.4064                 1.7757                 2.3515
 Frc consts  --      3.1124                 1.2791                 1.7014
 IR Inten    --    156.6049                 0.6558                 9.0483

                     67                     68                     69
                      A                      A                      A
 Frequencies --   1134.9382              1154.3790              1167.0738
 Red. masses --      6.4395                 3.9390                 2.2724
 Frc consts  --      4.8870                 3.0927                 1.8236
 IR Inten    --    648.8191               268.6860                 2.3880

                     70                     71                     72
                      A                      A                      A
 Frequencies --   1175.5268              1194.9410              1222.3600
 Red. masses --      1.3832                 1.6683                 5.9834
 Frc consts  --      1.1262                 1.4035                 5.2674
 IR Inten    --     19.7944                 1.0766               375.8371

                     73                     74                     75
                      A                      A                      A
 Frequencies --   1242.5962              1247.2617              1250.6714
 Red. masses --      2.7310                 2.5039                12.8289
 Frc consts  --      2.4845                 2.2950                11.8230
 IR Inten    --    264.6172               161.7071               212.0209

                     76                     77                     78
                      A                      A                      A
 Frequencies --   1289.4992              1290.5152              1298.7965
 Red. masses --      1.1863                 1.1811                 3.0501
 Frc consts  --      1.1622                 1.1590                 3.0314
 IR Inten    --      1.2110                 0.1866               959.5418

                     79                     80                     81
                      A                      A                      A
 Frequencies --   1320.4116              1334.9968              1335.6525
 Red. masses --      4.6410                 1.0700                 1.6502
 Frc consts  --      4.7674                 1.1235                 1.7345
 IR Inten    --    101.4982                 0.3702                47.9843

                     82                     83                     84
                      A                      A                      A
 Frequencies --   1347.0609              1351.1543              1357.8531
 Red. masses --      1.7040                 4.1489                 1.6188
 Frc consts  --      1.8218                 4.4627                 1.7585
 IR Inten    --     61.4011               223.9738               126.9878

                     85                     86                     87
                      A                      A                      A
 Frequencies --   1380.7420              1415.2191              1429.5858
 Red. masses --      4.2971                 1.4350                 1.2730
 Frc consts  --      4.8267                 1.6933                 1.5328
 IR Inten    --    400.3031                79.6725                 7.3938

                     88                     89                     90
                      A                      A                      A
 Frequencies --   1447.5010              1451.1577              1468.5728
 Red. masses --      2.3203                 2.2330                 2.9819
 Frc consts  --      2.8644                 2.7705                 3.7891
 IR Inten    --    296.2612               197.2324                49.4699

                     91                     92                     93
                      A                      A                      A
 Frequencies --   1481.1806              1501.9961              1505.9812
 Red. masses --      1.1476                 1.0674                 1.0393
 Frc consts  --      1.4834                 1.4188                 1.3888
 IR Inten    --      6.4652                 2.0193                 8.4143

                     94                     95                     96
                      A                      A                      A
 Frequencies --   1517.3848              1521.4068              1522.1975
 Red. masses --      1.0374                 1.0739                 1.0778
 Frc consts  --      1.4073                 1.4645                 1.4714
 IR Inten    --     10.6110                39.0274                13.0428

                     97                     98                     99
                      A                      A                      A
 Frequencies --   1537.3968              1555.8092              1613.0893
 Red. masses --      1.0905                 2.3438                 4.0779
 Frc consts  --      1.5186                 3.3426                 6.2517
 IR Inten    --     15.5478                48.5235               332.6435

                    100                    101                    102
                      A                      A                      A
 Frequencies --   1647.4727              1679.5198              1696.9592
 Red. masses --      6.3676                 6.3336                 1.8586
 Frc consts  --     10.1827                10.5262                 3.1535
 IR Inten    --     54.0061              1421.4522               100.3799

                    103                    104                    105
                      A                      A                      A
 Frequencies --   1803.4261              2855.0161              3060.6173
 Red. masses --      7.9500                 1.1081                 1.0442
 Frc consts  --     15.2340                 5.3216                 5.7631
 IR Inten    --    336.6975              2355.9898                62.2497

                    106                    107                    108
                      A                      A                      A
 Frequencies --   3064.2944              3069.9069              3073.8648
 Red. masses --      1.0376                 1.0603                 1.0584
 Frc consts  --      5.7401                 5.8877                 5.8921
 IR Inten    --     27.6716                20.7649                16.2228

                    109                    110                    111
                      A                      A                      A
 Frequencies --   3084.0380              3103.3891              3107.3616
 Red. masses --      1.0595                 1.0996                 1.1047
 Frc consts  --      5.9375                 6.2395                 6.2844
 IR Inten    --     45.5213                16.3688                 4.8788

                    112                    113                    114
                      A                      A                      A
 Frequencies --   3121.6858              3127.4168              3138.9162
 Red. masses --      1.1059                 1.0976                 1.0977
 Frc consts  --      6.3498                 6.3250                 6.3725
 IR Inten    --      0.0511                50.6815               312.9846

                    115                    116                    117
                      A                      A                      A
 Frequencies --   3140.2561              3141.9467              3153.8921
 Red. masses --      1.1060                 1.1014                 1.1007
 Frc consts  --      6.4258                 6.4060                 6.4509
 IR Inten    --     77.6265                46.3748                40.3074

                    118                    119                    120
                      A                      A                      A
 Frequencies --   3231.7179              3239.2134              3291.3495
 Red. masses --      1.0917                 1.0919                 1.0921
 Frc consts  --      6.7177                 6.7501                 6.9704
 IR Inten    --      0.3883                 1.0102                 4.9831

 - Thermochemistry -
 -------------------
 Temperature   298.150 Kelvin.  Pressure   1.00000 Atm.
 Atom     1 has atomic number  6 and mass  12.00000

 Molecular mass:   384.07287 amu.
 Principal axes and moments of inertia in atomic units:
                           1         2         3
     Eigenvalues --  6003.12358********************
           X            0.99997  -0.00369   0.00688
           Y            0.00369   0.99999  -0.00072
           Z           -0.00687   0.00074   0.99998
 This molecule is an asymmetric top.
 Rotational symmetry number  1.
 Warning -- assumption of classical behavior for rotation
           may cause significant error
 Rotational temperatures (Kelvin)      0.01443     0.00395     0.00331
 Rotational constants (GHZ):           0.30063     0.08238     0.06890
 Zero-point vibrational energy     826513.6 (Joules/Mol)
                                  197.54150 (Kcal/Mol)
 Warning -- explicit consideration of  41 degrees of freedom as
           vibrations may cause significant error
 Vibrational temperatures:     19.70    39.42    52.67    55.56    67.41
          (Kelvin)             74.55    83.81    93.91   108.23   124.69
                              131.31   137.48   158.38   187.15   207.37
                              217.10   227.57   273.83   283.93   297.24
                              329.25   335.01   336.47   375.11   441.83
                              448.82   453.43   488.86   514.30   522.41
                              559.91   628.33   649.40   699.41   734.35
                              758.70   767.33   813.92   838.06   848.84
                              880.50   919.29   952.57  1034.28  1068.99
                             1097.31  1122.57  1131.43  1154.27  1185.19
                             1241.64  1260.77  1273.80  1303.46  1314.73
                             1342.82  1441.13  1469.36  1472.33  1478.04
                             1502.64  1547.32  1549.75  1575.33  1590.90
                             1594.41  1632.92  1660.89  1679.16  1691.32
                             1719.25  1758.70  1787.82  1794.53  1799.44
                             1855.30  1856.76  1868.68  1899.78  1920.76
                             1921.71  1938.12  1944.01  1953.65  1986.58
                             2036.18  2056.86  2082.63  2087.89  2112.95
                             2131.09  2161.04  2166.77  2183.18  2188.97
                             2190.10  2211.97  2238.46  2320.88  2370.35
                             2416.45  2441.55  2594.73  4107.73  4403.55
                             4408.84  4416.91  4422.61  4437.24  4465.08
                             4470.80  4491.41  4499.66  4516.20  4518.13
                             4520.56  4537.75  4649.72  4660.51  4735.52

 Zero-point correction=                           0.314802 (Hartree/Particle)
 Thermal correction to Energy=                    0.341015
 Thermal correction to Enthalpy=                  0.341959
 Thermal correction to Gibbs Free Energy=         0.254053
 Sum of electronic and zero-point Energies=          -1747.198164
 Sum of electronic and thermal Energies=             -1747.171952
 Sum of electronic and thermal Enthalpies=           -1747.171007
 Sum of electronic and thermal Free Energies=        -1747.258914

                     E (Thermal)             CV                S
                      KCal/Mol        Cal/Mol-Kelvin    Cal/Mol-Kelvin
 Total                  213.990             92.242            185.015
 Electronic               0.000              0.000              0.000
 Translational            0.889              2.981             43.729
 Rotational               0.889              2.981             36.486
 Vibrational            212.213             86.281            104.800
 Vibration     1          0.593              1.986              7.387
 Vibration     2          0.593              1.984              6.010
 Vibration     3          0.594              1.982              5.435
 Vibration     4          0.594              1.981              5.329
 Vibration     5          0.595              1.979              4.946
 Vibration     6          0.596              1.977              4.747
 Vibration     7          0.596              1.974              4.516
 Vibration     8          0.597              1.971              4.291
 Vibration     9          0.599              1.966              4.012
 Vibration    10          0.601              1.958              3.734
 Vibration    11          0.602              1.955              3.633
 Vibration    12          0.603              1.952              3.543
 Vibration    13          0.606              1.941              3.268
 Vibration    14          0.612              1.923              2.945
 Vibration    15          0.616              1.909              2.748
 Vibration    16          0.618              1.902              2.661
 Vibration    17          0.621              1.893              2.572
 Vibration    18          0.634              1.853              2.225
 Vibration    19          0.637              1.844              2.158
 Vibration    20          0.641              1.830              2.074
 Vibration    21          0.652              1.797              1.888
 Vibration    22          0.654              1.791              1.857
 Vibration    23          0.654              1.789              1.849
 Vibration    24          0.669              1.745              1.657
 Vibration    25          0.697              1.660              1.378
 Vibration    26          0.700              1.651              1.352
 Vibration    27          0.703              1.645              1.335
 Vibration    28          0.720              1.596              1.213
 Vibration    29          0.733              1.560              1.133
 Vibration    30          0.737              1.548              1.109
 Vibration    31          0.757              1.493              1.003
 Vibration    32          0.797              1.390              0.837
 Vibration    33          0.810              1.358              0.792
 Vibration    34          0.842              1.281              0.694
 Vibration    35          0.866              1.227              0.633
 Vibration    36          0.882              1.190              0.593
 Vibration    37          0.888              1.176              0.580
 Vibration    38          0.922              1.105              0.513
 Vibration    39          0.939              1.069              0.481
 Vibration    40          0.947              1.053              0.467
 Vibration    41          0.971              1.006              0.430

 Optimization completed.
    -- Stationary point found.
 Normal termination of Gaussian 16 at Tue Mar 23 00:08:40 2021.
