 Gaussian 16, Revision C.01,
 Gaussian 16:  ES64L-G16RevC.01  3-Jul-2019

 ----------------------------------------------------------------------
 # DSDPBEP86/AUG-cc-PVTZ SCF=Tight INT(grid=ultrafine) Pop=NBO MaxDisk=
 1400000MB
 ----------------------------------------------------------------------

 ------------------------------------
 CP21CA_carboxy.DSDPBEP86_AUG-cc-PVTZ
 ------------------------------------
 Symbolic Z-matrix:
 Charge = -1 Multiplicity = 1

                         Standard orientation:
 ---------------------------------------------------------------------
 Center     Atomic      Atomic             Coordinates (Angstroms)
 Number     Number       Type             X           Y           Z
 ---------------------------------------------------------------------
      1          6           0        0.361813   -0.344058   -0.512193
      2          7           0        1.743195   -0.326002   -0.430154
      3          6           0        2.556944   -1.414046   -0.492468
      4          8           0        2.233894   -2.577455   -0.624383
      5          8           0        3.842486   -1.017978   -0.388672
      6          6           0       -0.404697   -1.512950   -0.689891
      7          6           0       -1.784128   -1.427685   -0.760321
      8          6           0       -2.404690   -0.184227   -0.661458
      9          6           0       -1.658154    0.985989   -0.485805
     10          6           0       -0.283639    0.907261   -0.411170
     11          1           0        2.210788    0.620398   -0.297359
     12          1           0        0.084569   -2.470187   -0.774919
     13          6           0       -4.597426   -0.229613    1.118264
     14          1           0       -2.155066    1.947110   -0.418536
     15          1           0        0.307026    1.815120   -0.277500
     16          9           0       -4.069581    0.774800    1.805219
     17          9           0       -5.919933   -0.185256    1.241317
     18          9           0       -4.160426   -1.375091    1.630149
     19         16           0       -4.145280   -0.103156   -0.688617
     20          8           0       -4.709282   -1.306164   -1.275218
     21          8           0       -4.602937    1.217733   -1.075584
     22          1           0       -2.383638   -2.319333   -0.903674
     23          8           0        1.365915    3.554753    0.019718
     24          8           0        2.988465    2.007561   -0.077539
     25          6           0        2.552059    3.186351    0.053105
     26          6           0        3.610316    4.284791    0.275267
     27          6           0        5.045420    3.780179    0.344198
     28          1           0        3.332834    4.815054    1.191762
     29          1           0        3.487281    5.012492   -0.533479
     30          1           0        5.163434    3.062247    1.157710
     31          1           0        5.752202    4.602068    0.499355
     32          1           0        5.314765    3.257741   -0.575115
     33          6           0        4.818050   -2.052763   -0.386715
     34          6           0        4.951923   -2.700423    0.982087
     35          6           0        6.055181   -3.754701    0.984047
     36          1           0        5.747207   -1.555865   -0.672156
     37          1           0        4.565474   -2.799346   -1.143697
     38          1           0        3.994316   -3.152174    1.251048
     39          1           0        5.164670   -1.919556    1.717629
     40          1           0        5.839645   -4.550482    0.265882
     41          1           0        6.162087   -4.216812    1.967327
     42          1           0        7.021837   -3.318274    0.716258
 ---------------------------------------------------------------------

 SCF Done:  E(RDSDPBEP86) =  -1743.26199397     A.U. after   14 cycles
 E2(DSDPBEP86) =    -0.2461678602D+01 E(DSDPBEP86) =    -0.17457236725744D+04

 The electronic state is 1-A.
 Alpha  occ. eigenvalues --  -90.90950 -25.65327 -25.65292 -25.65254 -19.94927
 Alpha  occ. eigenvalues --  -19.92490 -19.92423 -19.88447 -19.81077 -19.80184
 Alpha  occ. eigenvalues --  -15.00113 -11.02643 -10.88417 -10.79203 -10.78602
 Alpha  occ. eigenvalues --  -10.77608 -10.76363 -10.75680 -10.75042 -10.73981
 Alpha  occ. eigenvalues --  -10.73465 -10.72984 -10.71822 -10.68863 -10.68730
 Alpha  occ. eigenvalues --   -8.68231  -6.47068  -6.46961  -6.46941  -1.52072
 Alpha  occ. eigenvalues --   -1.42639  -1.42600  -1.25059  -1.24068  -1.14300
 Alpha  occ. eigenvalues --   -1.13671  -1.11231  -1.04310  -1.01302  -0.96293
 Alpha  occ. eigenvalues --   -0.88873  -0.86462  -0.83944  -0.82825  -0.81291
 Alpha  occ. eigenvalues --   -0.77935  -0.74316  -0.69866  -0.68223  -0.68085
 Alpha  occ. eigenvalues --   -0.67725  -0.66693  -0.66230  -0.62436  -0.60730
 Alpha  occ. eigenvalues --   -0.57960  -0.56862  -0.56065  -0.55967  -0.54404
 Alpha  occ. eigenvalues --   -0.52145  -0.51810  -0.50776  -0.50580  -0.50518
 Alpha  occ. eigenvalues --   -0.50056  -0.49956  -0.49669  -0.48643  -0.46517
 Alpha  occ. eigenvalues --   -0.46376  -0.44813  -0.44480  -0.44000  -0.43878
 Alpha  occ. eigenvalues --   -0.43391  -0.41734  -0.40778  -0.39633  -0.38775
 Alpha  occ. eigenvalues --   -0.37547  -0.37108  -0.36665  -0.36452  -0.36238
 Alpha  occ. eigenvalues --   -0.35869  -0.35408  -0.34607  -0.34155  -0.33128
 Alpha  occ. eigenvalues --   -0.31731  -0.31394  -0.30752  -0.30442  -0.29345
 Alpha  occ. eigenvalues --   -0.23201  -0.21654  -0.21208  -0.20065  -0.19307
 Alpha virt. eigenvalues --    0.07363   0.08820   0.09044   0.09386   0.09865
 Alpha virt. eigenvalues --    0.10538   0.11015   0.11084   0.11307   0.11775
 Alpha virt. eigenvalues --    0.11991   0.12126   0.12398   0.12517   0.13116

 Mulliken charges:
               1
     1  C    1.207816
     2  N   -0.310917
     3  C    0.251101
     4  O   -0.910259
     5  O   -0.481453
     6  C   -0.834306
     7  C   -0.520038
     8  C    0.551886
     9  C   -0.504865
    10  C   -1.148556
    11  H    0.592106
    12  H    0.561816
    13  C    1.001393
    14  H    0.382240
    15  H    0.862316
    16  F   -0.397410
    17  F   -0.381957
    18  F   -0.404709
    19  S    1.945331
    20  O   -1.032464
    21  O   -1.029815
    22  H    0.392765
    23  O   -1.017380
    24  O   -0.662082
    25  C    0.492922
    26  C   -0.236977
    27  C   -0.929982
    28  H    0.219803
    29  H    0.210863
    30  H    0.259868
    31  H    0.289731
    32  H    0.261488
    33  C   -0.313046
    34  C   -0.409255
    35  C   -1.002768
    36  H    0.339776
    37  H    0.346633
    38  H    0.303175
    39  H    0.238693
    40  H    0.282230
    41  H    0.260017
    42  H    0.274269
 Sum of Mulliken charges =  -1.00000

 Dipole moment (field-independent basis, Debye):
    X=              1.1989    Y=             -6.4972    Z=              2.2335  Tot=              6.9743
 Quadrupole moment (field-independent basis, Debye-Ang):
   XX=           -217.1639   YY=           -194.9414   ZZ=           -160.5037
   XY=            -14.8041   XZ=             -8.5058   YZ=             -1.8648

 Summary of Natural Population Analysis:

                                       Natural Population
                Natural  -----------------------------------------------
    Atom  No    Charge         Core      Valence    Rydberg      Total
 -----------------------------------------------------------------------
      C    1    0.25716      1.99912     3.71572    0.02800     5.74284
      N    2   -0.69331      1.99931     5.66460    0.02941     7.69331
      C    3    1.01341      1.99946     2.95293    0.03420     4.98659
      O    4   -0.73599      1.99975     6.70429    0.03195     8.73599
      O    5   -0.56038      1.99974     6.53500    0.02565     8.56038
      C    6   -0.27479      1.99917     4.25292    0.02270     6.27479
      C    7   -0.13066      1.99916     4.10584    0.02566     6.13066
      C    8   -0.47142      1.99893     4.42657    0.04593     6.47142
      C    9   -0.07305      1.99917     4.04865    0.02523     6.07305
      C   10   -0.27885      1.99921     4.24735    0.03229     6.27885
      H   11    0.48974      0.00000     0.50379    0.00647     0.51026
      H   12    0.24701      0.00000     0.75009    0.00290     0.75299
      C   13    0.88103      1.99983     3.05360    0.06554     5.11897
      H   14    0.22761      0.00000     0.76845    0.00394     0.77239
      H   15    0.28578      0.00000     0.70713    0.00709     0.71422
      F   16   -0.34885      1.99992     7.33959    0.00934     9.34885
      F   17   -0.35271      1.99992     7.34313    0.00966     9.35271
      F   18   -0.35250      1.99992     7.34356    0.00902     9.35250
      S   19    2.19935      9.99845     3.59495    0.20725    13.80065
      O   20   -0.99433      1.99984     6.94966    0.04483     8.99433
      O   21   -0.98758      1.99984     6.94195    0.04579     8.98758
      H   22    0.22067      0.00000     0.77549    0.00384     0.77933
      O   23   -0.81866      1.99977     6.79264    0.02625     8.81866
      O   24   -0.86088      1.99973     6.83813    0.02301     8.86088
      C   25    0.88611      1.99963     3.06799    0.04627     5.11389
      C   26   -0.46804      1.99941     4.44591    0.02272     6.46804
      C   27   -0.54662      1.99955     4.53089    0.01618     6.54662
      H   28    0.18487      0.00000     0.81185    0.00328     0.81513
      H   29    0.18499      0.00000     0.81173    0.00327     0.81501
      H   30    0.18782      0.00000     0.80895    0.00323     0.81218
      H   31    0.16008      0.00000     0.83681    0.00311     0.83992
      H   32    0.18980      0.00000     0.80693    0.00327     0.81020
      C   33    0.00732      1.99930     3.96838    0.02500     5.99268
      C   34   -0.38900      1.99950     4.36920    0.02030     6.38900
      C   35   -0.54908      1.99954     4.53449    0.01505     6.54908
      H   36    0.16225      0.00000     0.83476    0.00298     0.83775
      H   37    0.17208      0.00000     0.82483    0.00308     0.82792
      H   38    0.19858      0.00000     0.79814    0.00328     0.80142
      H   39    0.18291      0.00000     0.81343    0.00366     0.81709
      H   40    0.18275      0.00000     0.81479    0.00246     0.81725
      H   41    0.18778      0.00000     0.80998    0.00224     0.81222
      H   42    0.17808      0.00000     0.81940    0.00253     0.82192
 =======================================================================
   * Total *   -0.99950     57.98716   141.06450    0.94784   199.99950

 Normal termination of Gaussian 16 at Wed Apr 28 20:10:46 2021.
