 Gaussian 09, Revision E.01,
 Gaussian 09:  ES64L-G09RevE.01 30-Nov-2015

 -------------------------------------------------------------
 # MP2/Gen 5D SCF=Tight INT(grid=ultrafine) maxdisk=3489660928
 -------------------------------------------------------------

 ---------------------
 CP22CA.MP2_GTMP2LARGE
 ---------------------
 Symbolic Z-matrix:
 Charge =  0 Multiplicity = 1

                         Standard orientation:
 ---------------------------------------------------------------------
 Center     Atomic      Atomic             Coordinates (Angstroms)
 Number     Number       Type             X           Y           Z
 ---------------------------------------------------------------------
      1          6           0        0.509254    1.098254   -0.000146
      2          7           0        1.906379    1.099830   -0.000352
      3          6           0        2.741028    0.006678   -0.000087
      4          8           0        2.401871   -1.146990    0.000377
      5          8           0        4.012411    0.432900   -0.000424
      6          6           0        5.008944   -0.603354   -0.000181
      7          6           0        6.366629    0.064570    0.000087
      8          6           0        7.484100   -0.975138    0.000351
      9          6           0       -0.252198   -0.074087   -0.000108
     10          6           0       -1.631079    0.051061    0.000002
     11          6           0       -2.300359    1.263168    0.000082
     12          6           0       -1.513922    2.406676    0.000055
     13          6           0       -0.131737    2.340744   -0.000050
     14          1           0        2.370735    1.995937   -0.000562
     15          1           0        4.864067   -1.229659   -0.883642
     16          1           0        4.863705   -1.229625    0.883241
     17          1           0        6.446047    0.709847    0.879141
     18          1           0        6.446434    0.709804   -0.878965
     19          1           0        7.428694   -1.617173    0.882730
     20          1           0        8.463809   -0.496044    0.000650
     21          1           0        7.429192   -1.617101   -0.882112
     22          1           0        0.227459   -1.040364   -0.000162
     23         17           0       -2.283170    3.964587    0.000157
     24          1           0        0.446095    3.258200   -0.000068
     25         16           0       -2.619983   -1.469256   -0.000001
     26          1           0       -3.379262    1.328203    0.000160
     27          9           0       -1.704039   -2.146951    1.140469
     28          9           0       -3.613420   -0.898302    1.139362
     29          9           0       -1.703856   -2.147075   -1.140256
     30          9           0       -3.613220   -0.898404   -1.139592
     31          9           0       -3.500602   -2.811427   -0.000009
 ---------------------------------------------------------------------

 SCF Done:  E(RHF) =  -1943.79151332     A.U. after   15 cycles
 E2 =    -0.3932276792D+01 EUMP2 =    -0.19477237901164D+04

 The electronic state is 1-A.
 Alpha  occ. eigenvalues -- -104.86289 -92.36696 -26.34264 -26.34262 -26.34262
 Alpha  occ. eigenvalues --  -26.34261 -26.34192 -20.62025 -20.55381 -15.62854
 Alpha  occ. eigenvalues --  -11.42840 -11.33040 -11.32812 -11.30818 -11.29898
 Alpha  occ. eigenvalues --  -11.27500 -11.27397 -11.26758 -11.23906 -11.22963
 Alpha  occ. eigenvalues --  -10.58725  -9.30982  -8.05503  -8.05330  -8.05326
 Alpha  occ. eigenvalues --   -6.99867  -6.99855  -6.99538  -1.74886  -1.65255
 Alpha  occ. eigenvalues --   -1.65185  -1.62283  -1.60896  -1.49353  -1.38598
 Alpha  occ. eigenvalues --   -1.29366  -1.21727  -1.15477  -1.10115  -1.08079
 Alpha  occ. eigenvalues --   -1.04117  -1.02492  -0.96432  -0.90092  -0.89172
 Alpha  occ. eigenvalues --   -0.85901  -0.85886  -0.83135  -0.81928  -0.81105
 Alpha  occ. eigenvalues --   -0.77773  -0.77130  -0.75741  -0.75015  -0.72620
 Alpha  occ. eigenvalues --   -0.71838  -0.71278  -0.69120  -0.68726  -0.68587
 Alpha  occ. eigenvalues --   -0.68110  -0.67961  -0.67152  -0.66274  -0.65241
 Alpha  occ. eigenvalues --   -0.64523  -0.64506  -0.64252  -0.62355  -0.61762
 Alpha  occ. eigenvalues --   -0.60166  -0.59463  -0.57164  -0.56623  -0.56126
 Alpha  occ. eigenvalues --   -0.53790  -0.52997  -0.51934  -0.50345  -0.50065
 Alpha  occ. eigenvalues --   -0.48071  -0.47908  -0.47457  -0.47098  -0.37473
 Alpha  occ. eigenvalues --   -0.34204
 Alpha virt. eigenvalues --    0.03047   0.03922   0.05238   0.05390   0.05782
 Alpha virt. eigenvalues --    0.06092   0.06740   0.07678   0.08214   0.08370
 Alpha virt. eigenvalues --    0.08944   0.09132   0.09626   0.10063   0.10603

 Mulliken charges:
               1
     1  C   -0.327648
     2  N   -0.442252
     3  C    0.367465
     4  O   -0.444133
     5  O   -0.214330
     6  C    0.108185
     7  C    0.258338
     8  C   -0.445389
     9  C   -0.168275
    10  C    0.189583
    11  C   -0.390170
    12  C    0.480072
    13  C   -0.350846
    14  H    0.223636
    15  H    0.103681
    16  H    0.103661
    17  H    0.047875
    18  H    0.047888
    19  H    0.058815
    20  H    0.090536
    21  H    0.058810
    22  H    0.308281
    23  Cl  -0.206836
    24  H    0.135152
    25  S    2.544093
    26  H    0.177215
    27  F   -0.463197
    28  F   -0.494750
    29  F   -0.463191
    30  F   -0.494758
    31  F   -0.397512
 Sum of Mulliken charges =  -0.00000

 Dipole moment (field-independent basis, Debye):
    X=              5.5624    Y=              3.6309    Z=             -0.0007  Tot=              6.6426
 Quadrupole moment (field-independent basis, Debye-Ang):
   XX=           -114.0991   YY=           -133.0676   ZZ=           -131.2365
   XY=             -1.1575   XZ=             -0.0015   YZ=              0.0008

 Normal termination of Gaussian 09 at Mon Dec  9 12:51:54 2019.
