 Gaussian 09, Revision E.01,
 Gaussian 09:  ES64L-G09RevE.01 30-Nov-2015

 -------------------------------------------------------------
 # MP2/Gen 6D SCF=Tight INT(grid=ultrafine) maxdisk=3489660928
 -------------------------------------------------------------

 ------------------
 CP22CA.MP2_6-31pGd
 ------------------
 Symbolic Z-matrix:
 Charge =  0 Multiplicity = 1

                         Standard orientation:
 ---------------------------------------------------------------------
 Center     Atomic      Atomic             Coordinates (Angstroms)
 Number     Number       Type             X           Y           Z
 ---------------------------------------------------------------------
      1          6           0        0.509254    1.098254   -0.000146
      2          7           0        1.906379    1.099830   -0.000352
      3          6           0        2.741028    0.006678   -0.000087
      4          8           0        2.401871   -1.146990    0.000377
      5          8           0        4.012411    0.432900   -0.000424
      6          6           0        5.008944   -0.603354   -0.000181
      7          6           0        6.366629    0.064570    0.000087
      8          6           0        7.484100   -0.975138    0.000351
      9          6           0       -0.252198   -0.074087   -0.000108
     10          6           0       -1.631079    0.051061    0.000002
     11          6           0       -2.300359    1.263168    0.000082
     12          6           0       -1.513922    2.406676    0.000055
     13          6           0       -0.131737    2.340744   -0.000050
     14          1           0        2.370735    1.995937   -0.000562
     15          1           0        4.864067   -1.229659   -0.883642
     16          1           0        4.863705   -1.229625    0.883241
     17          1           0        6.446047    0.709847    0.879141
     18          1           0        6.446434    0.709804   -0.878965
     19          1           0        7.428694   -1.617173    0.882730
     20          1           0        8.463809   -0.496044    0.000650
     21          1           0        7.429192   -1.617101   -0.882112
     22          1           0        0.227459   -1.040364   -0.000162
     23         17           0       -2.283170    3.964587    0.000157
     24          1           0        0.446095    3.258200   -0.000068
     25         16           0       -2.619983   -1.469256   -0.000001
     26          1           0       -3.379262    1.328203    0.000160
     27          9           0       -1.704039   -2.146951    1.140469
     28          9           0       -3.613420   -0.898302    1.139362
     29          9           0       -1.703856   -2.147075   -1.140256
     30          9           0       -3.613220   -0.898404   -1.139592
     31          9           0       -3.500602   -2.811427   -0.000009
 ---------------------------------------------------------------------

 SCF Done:  E(RHF) =  -1943.35341628     A.U. after   18 cycles
 E2 =    -0.3011694806D+01 EUMP2 =    -0.19463651110873D+04

 The electronic state is 1-A.
 Alpha  occ. eigenvalues -- -104.85211 -92.40397 -26.35828 -26.35813 -26.35812
 Alpha  occ. eigenvalues --  -26.35806 -26.35804 -20.63543 -20.57195 -15.64151
 Alpha  occ. eigenvalues --  -11.44023 -11.33871 -11.33629 -11.31761 -11.30532
 Alpha  occ. eigenvalues --  -11.28471 -11.28420 -11.27713 -11.24450 -11.23505
 Alpha  occ. eigenvalues --  -10.58447  -9.34432  -8.05390  -8.05047  -8.05044
 Alpha  occ. eigenvalues --   -7.03308  -7.03295  -7.02962  -1.75794  -1.65836
 Alpha  occ. eigenvalues --   -1.65763  -1.62850  -1.61362  -1.49935  -1.39162
 Alpha  occ. eigenvalues --   -1.29847  -1.22287  -1.16042  -1.10784  -1.08522
 Alpha  occ. eigenvalues --   -1.04760  -1.03033  -0.96811  -0.90709  -0.89603
 Alpha  occ. eigenvalues --   -0.86397  -0.86380  -0.83410  -0.82419  -0.81441
 Alpha  occ. eigenvalues --   -0.77876  -0.77467  -0.75868  -0.75225  -0.72989
 Alpha  occ. eigenvalues --   -0.72187  -0.71449  -0.69138  -0.68878  -0.68624
 Alpha  occ. eigenvalues --   -0.68162  -0.67997  -0.67099  -0.66577  -0.65444
 Alpha  occ. eigenvalues --   -0.64818  -0.64707  -0.64507  -0.62614  -0.62089
 Alpha  occ. eigenvalues --   -0.60549  -0.59620  -0.57502  -0.56820  -0.56388
 Alpha  occ. eigenvalues --   -0.54114  -0.53239  -0.52056  -0.50583  -0.50207
 Alpha  occ. eigenvalues --   -0.48181  -0.48074  -0.47634  -0.47216  -0.37715
 Alpha  occ. eigenvalues --   -0.34338
 Alpha virt. eigenvalues --    0.04887   0.06791   0.06910   0.07480   0.08128
 Alpha virt. eigenvalues --    0.08835   0.08838   0.09195   0.09244   0.10551
 Alpha virt. eigenvalues --    0.10739   0.10889   0.11779   0.12131   0.12606

 Mulliken charges:
               1
     1  C   -0.018334
     2  N   -0.934740
     3  C    0.697156
     4  O   -0.583283
     5  O   -0.471927
     6  C    0.078711
     7  C   -0.280688
     8  C   -0.690162
     9  C    0.451021
    10  C   -0.043459
    11  C   -0.561682
    12  C    0.266241
    13  C   -0.905696
    14  H    0.503136
    15  H    0.213495
    16  H    0.213520
    17  H    0.204549
    18  H    0.204547
    19  H    0.197059
    20  H    0.204760
    21  H    0.197063
    22  H    0.353021
    23  Cl   0.266026
    24  H    0.258859
    25  S    3.092933
    26  H    0.299585
    27  F   -0.641049
    28  F   -0.647821
    29  F   -0.641077
    30  F   -0.647799
    31  F   -0.633964
 Sum of Mulliken charges =  -0.00000

 Dipole moment (field-independent basis, Debye):
    X=              5.6382    Y=              3.6574    Z=             -0.0007  Tot=              6.7205
 Quadrupole moment (field-independent basis, Debye-Ang):
   XX=           -114.9750   YY=           -134.2671   ZZ=           -132.3610
   XY=             -1.2145   XZ=             -0.0015   YZ=              0.0009

 Normal termination of Gaussian 09 at Mon Dec  9 11:27:05 2019.
