 Gaussian 09, Revision E.01,

 ----------------------------------------------------------------------
 # M062X/6-311+G* SCF=Tight INT(grid=ultrafine) OPT IOP(2/17=4) Empiric
 alDispersion=GD3 maxdisk=2684354560
 ----------------------------------------------------------------------

 -----------------------------
 CP22CA.M062X_6-311pGd_opt_GD3
 -----------------------------
 Symbolic Z-matrix:
 Charge =  0 Multiplicity = 1

 SCF Done:  E(RM062X) =  -1950.29200780     A.U. after   15 cycles
 Optimization completed.
    -- Stationary point found.
 Normal termination of Gaussian 09 at Thu Nov 14 17:32:19 2019.
 Gaussian 09:  ES64L-G09RevE.01 30-Nov-2015

 ----------------------------------------------------------------------
 # M062X/6-311+G* SCF=Tight INT(grid=ultrafine) EmpiricalDispersion=GD3
  Freq=Noraman maxdisk=2684354560 geom=check guess=read IOP(2/17=4)
 ----------------------------------------------------------------------

 -----------------------------
 CP22CA.M062X_6-311pGd_opt_GD3
 -----------------------------
 Structure from the checkpoint file:  "CP22CA.M062X_6-311pGd_opt_GD3.chk"
 Charge =  0 Multiplicity = 1

                         Standard orientation:
 ---------------------------------------------------------------------
 Center     Atomic      Atomic             Coordinates (Angstroms)
 Number     Number       Type             X           Y           Z
 ---------------------------------------------------------------------
      1          6           0        0.509254    1.098254   -0.000146
      2          7           0        1.906379    1.099830   -0.000352
      3          6           0        2.741028    0.006678   -0.000087
      4          8           0        2.401871   -1.146990    0.000377
      5          8           0        4.012411    0.432900   -0.000424
      6          6           0        5.008944   -0.603354   -0.000181
      7          6           0        6.366629    0.064570    0.000087
      8          6           0        7.484100   -0.975138    0.000351
      9          6           0       -0.252198   -0.074087   -0.000108
     10          6           0       -1.631079    0.051061    0.000002
     11          6           0       -2.300359    1.263168    0.000082
     12          6           0       -1.513922    2.406676    0.000055
     13          6           0       -0.131737    2.340744   -0.000050
     14          1           0        2.370735    1.995937   -0.000562
     15          1           0        4.864067   -1.229659   -0.883642
     16          1           0        4.863705   -1.229625    0.883241
     17          1           0        6.446047    0.709847    0.879141
     18          1           0        6.446434    0.709804   -0.878965
     19          1           0        7.428694   -1.617173    0.882730
     20          1           0        8.463809   -0.496044    0.000650
     21          1           0        7.429192   -1.617101   -0.882112
     22          1           0        0.227459   -1.040364   -0.000162
     23         17           0       -2.283170    3.964587    0.000157
     24          1           0        0.446095    3.258200   -0.000068
     25         16           0       -2.619983   -1.469256   -0.000001
     26          1           0       -3.379262    1.328203    0.000160
     27          9           0       -1.704039   -2.146951    1.140469
     28          9           0       -3.613420   -0.898302    1.139362
     29          9           0       -1.703856   -2.147075   -1.140256
     30          9           0       -3.613220   -0.898404   -1.139592
     31          9           0       -3.500602   -2.811427   -0.000009
 ---------------------------------------------------------------------

 SCF Done:  E(RM062X) =  -1950.29200780     A.U. after    2 cycles

 The electronic state is 1-A.
 Alpha  occ. eigenvalues -- -102.69837 -90.28206 -25.28496 -25.28495 -25.28492
 Alpha  occ. eigenvalues --  -25.28491 -25.28363 -19.68906 -19.62902 -14.82025
 Alpha  occ. eigenvalues --  -10.72531 -10.64146 -10.63981 -10.62164 -10.61084
 Alpha  occ. eigenvalues --  -10.59014 -10.58935 -10.58380 -10.55400 -10.54294
 Alpha  occ. eigenvalues --   -9.84104  -8.60500  -7.56623  -7.55933  -7.55923
 Alpha  occ. eigenvalues --   -6.52931  -6.52921  -6.52490  -1.50487  -1.40342
 Alpha  occ. eigenvalues --   -1.40267  -1.37374  -1.35813  -1.27046  -1.17143
 Alpha  occ. eigenvalues --   -1.09703  -1.03194  -0.98267  -0.94100  -0.91469
 Alpha  occ. eigenvalues --   -0.88425  -0.86655  -0.81779  -0.77225  -0.75705
 Alpha  occ. eigenvalues --   -0.73802  -0.73764  -0.70282  -0.70027  -0.68679
 Alpha  occ. eigenvalues --   -0.65774  -0.64379  -0.62465  -0.62385  -0.62083
 Alpha  occ. eigenvalues --   -0.60885  -0.60738  -0.58317  -0.57733  -0.56062
 Alpha  occ. eigenvalues --   -0.55768  -0.55561  -0.55442  -0.55372  -0.55127
 Alpha  occ. eigenvalues --   -0.53591  -0.52827  -0.52549  -0.51763  -0.51592
 Alpha  occ. eigenvalues --   -0.51115  -0.50713  -0.48710  -0.48265  -0.47107
 Alpha  occ. eigenvalues --   -0.45542  -0.44938  -0.44595  -0.42311  -0.42129
 Alpha  occ. eigenvalues --   -0.40690  -0.40237  -0.39622  -0.38680  -0.33885
 Alpha  occ. eigenvalues --   -0.31037
 Alpha virt. eigenvalues --   -0.03151  -0.01885  -0.01343  -0.00880   0.01021
 Alpha virt. eigenvalues --    0.01725   0.02346   0.02549   0.03029   0.04012
 Alpha virt. eigenvalues --    0.04133   0.04335   0.05164   0.05381   0.05765

 Mulliken charges:
               1
     1  C   -1.443109
     2  N   -0.488675
     3  C   -0.065386
     4  O   -0.273243
     5  O   -0.046057
     6  C   -0.312659
     7  C   -0.146002
     8  C   -1.026535
     9  C    0.209386
    10  C   -0.927790
    11  C   -0.051685
    12  C    0.211489
    13  C   -0.083945
    14  H    0.409567
    15  H    0.270426
    16  H    0.270425
    17  H    0.259266
    18  H    0.259260
    19  H    0.260600
    20  H    0.274889
    21  H    0.260606
    22  H    0.349168
    23  Cl   0.432488
    24  H    0.259934
    25  S    0.512103
    26  H    0.317616
    27  F    0.078426
    28  F    0.055393
    29  F    0.078386
    30  F    0.055400
    31  F    0.040258
 Sum of Mulliken charges =  -0.00000

 Dipole moment (field-independent basis, Debye):
    X=              5.6783    Y=              3.8057    Z=             -0.0007  Tot=              6.8357
 Quadrupole moment (field-independent basis, Debye-Ang):
   XX=           -114.5045   YY=           -132.7736   ZZ=           -132.3608
   XY=             -2.2030   XZ=             -0.0014   YZ=              0.0008

  Exact polarizability: 216.459 -15.514 182.265  -0.004  -0.001 104.631
 Approx polarizability: 223.514 -10.978 223.271  -0.008  -0.003 138.789

                      1                      2                      3
                      A                      A                      A
 Frequencies --     18.2108                20.9980                36.7187
 Red. masses --      7.5978                 2.8819                 6.9652
 Frc consts  --      0.0015                 0.0007                 0.0055
 IR Inten    --      0.1042                 1.2428                 0.1133

                      4                      5                      6
                      A                      A                      A
 Frequencies --     50.2345                73.3032                73.9298
 Red. masses --      5.7238                 2.6333                 5.4500
 Frc consts  --      0.0085                 0.0083                 0.0176
 IR Inten    --      0.0872                 2.9766                 0.6915

                      7                      8                      9
                      A                      A                      A
 Frequencies --    104.5284               110.6501               150.5740
 Red. masses --      6.8286                 7.6748                10.1239
 Frc consts  --      0.0440                 0.0554                 0.1352
 IR Inten    --      0.3828                 0.0942                 1.7738

                     10                     11                     12
                      A                      A                      A
 Frequencies --    173.1631               192.8128               193.8900
 Red. masses --      3.3328                 5.5939                10.7923
 Frc consts  --      0.0589                 0.1225                 0.2390
 IR Inten    --      2.5895                 0.3138                 0.2131

                     13                     14                     15
                      A                      A                      A
 Frequencies --    236.1799               240.4603               251.0086
 Red. masses --      5.7624                 1.1557                 4.0226
 Frc consts  --      0.1894                 0.0394                 0.1493
 IR Inten    --      3.0098                 0.0720                 0.5543

                     16                     17                     18
                      A                      A                      A
 Frequencies --    272.4019               275.7520               316.5439
 Red. masses --      9.3692                 7.8579                 6.6151
 Frc consts  --      0.4096                 0.3520                 0.3905
 IR Inten    --      0.1790                 0.0072                 6.1539

                     19                     20                     21
                      A                      A                      A
 Frequencies --    338.6139               358.8105               389.1472
 Red. masses --     18.8094                 5.3416                15.5378
 Frc consts  --      1.2707                 0.4052                 1.3863
 IR Inten    --      0.0007                26.5195                 3.8844

                     22                     23                     24
                      A                      A                      A
 Frequencies --    390.8414               447.5859               453.6938
 Red. masses --     11.7529                 6.1267                 9.1663
 Frc consts  --      1.0578                 0.7231                 1.1117
 IR Inten    --      1.1484                 0.1464                 1.1041

                     25                     26                     27
                      A                      A                      A
 Frequencies --    456.2674               498.8937               532.7027
 Red. masses --      9.4233                 6.7050                 2.0319
 Frc consts  --      1.1558                 0.9833                 0.3397
 IR Inten    --      1.3007                 5.8566                15.5858

                     28                     29                     30
                      A                      A                      A
 Frequencies --    541.9644               553.8459               569.2754
 Red. masses --      2.4547                13.5851                 4.6356
 Frc consts  --      0.4248                 2.4552                 0.8851
 IR Inten    --     70.1596                 6.5989                 4.1684

                     31                     32                     33
                      A                      A                      A
 Frequencies --    587.1470               600.0831               614.8549
 Red. masses --     18.6330                18.3837                 4.7676
 Frc consts  --      3.7847                 3.9004                 1.0619
 IR Inten    --     93.5152                 0.2004                 0.1472

                     34                     35                     36
                      A                      A                      A
 Frequencies --    653.0313               663.7129               692.5253
 Red. masses --     11.5333                 8.3094                 2.5838
 Frc consts  --      2.8978                 2.1566                 0.7301
 IR Inten    --     29.4705                12.5512                17.4098

                     37                     38                     39
                      A                      A                      A
 Frequencies --    754.6859               762.5092               790.3775
 Red. masses --     11.4399                 1.1148                 8.1518
 Frc consts  --      3.8389                 0.3819                 3.0004
 IR Inten    --    164.1174                 4.9509                15.7198

                     40                     41                     42
                      A                      A                      A
 Frequencies --    803.4540               866.2134               870.3011
 Red. masses --      9.7393                 3.0505                18.4174
 Frc consts  --      3.7043                 1.3486                 8.2190
 IR Inten    --     62.3965                98.0056               385.6939

                     43                     44                     45
                      A                      A                      A
 Frequencies --    875.5198               886.0623               892.1034
 Red. masses --      2.6090                15.2316                 1.4666
 Frc consts  --      1.1783                 7.0457                 0.6877
 IR Inten    --    316.1765               178.7916                 3.7339

                     46                     47                     48
                      A                      A                      A
 Frequencies --    901.7341               920.0804               928.8950
 Red. masses --      1.1547                 1.3541                 1.7594
 Frc consts  --      0.5532                 0.6754                 0.8944
 IR Inten    --      2.5256                19.7070                43.3476

                     49                     50                     51
                      A                      A                      A
 Frequencies --    973.2641              1013.7044              1028.2605
 Red. masses --      5.6359                 5.8990                 7.0883
 Frc consts  --      3.1454                 3.5715                 4.4157
 IR Inten    --     58.3121                 2.9917                27.1193

                     52                     53                     54
                      A                      A                      A
 Frequencies --   1075.9189              1135.6411              1159.6832
 Red. masses --      2.5320                 5.3268                 1.4769
 Frc consts  --      1.7269                 4.0476                 1.1703
 IR Inten    --     12.7346                81.2817                28.3218

                     55                     56                     57
                      A                      A                      A
 Frequencies --   1165.8280              1170.2054              1197.3540
 Red. masses --      1.7219                 2.3950                 1.6688
 Frc consts  --      1.3789                 1.9324                 1.4096
 IR Inten    --     64.0601                11.7310                 0.7617

                     58                     59                     60
                      A                      A                      A
 Frequencies --   1254.6809              1293.7332              1294.9989
 Red. masses --      2.3432                 3.0233                 1.1829
 Frc consts  --      2.1734                 2.9814                 1.1688
 IR Inten    --    433.8788               583.1393                 0.7174

                     61                     62                     63
                      A                      A                      A
 Frequencies --   1319.5020              1339.5171              1348.7076
 Red. masses --      1.8855                 1.0660                 1.4240
 Frc consts  --      1.9342                 1.1269                 1.5261
 IR Inten    --      6.9841                 0.4606                 7.2061

                     64                     65                     66
                      A                      A                      A
 Frequencies --   1352.3223              1432.8352              1442.4699
 Red. masses --      3.0633                 1.2796                 1.5337
 Frc consts  --      3.3007                 1.5478                 1.8802
 IR Inten    --     23.2289                 2.9774                58.5179

                     67                     68                     69
                      A                      A                      A
 Frequencies --   1468.9379              1510.4998              1515.8243
 Red. masses --      2.6841                 1.0626                 3.6661
 Frc consts  --      3.4123                 1.4285                 4.9631
 IR Inten    --    152.1943                 1.3732               137.6190

                     70                     71                     72
                      A                      A                      A
 Frequencies --   1525.2779              1525.2873              1537.9869
 Red. masses --      1.0789                 1.0389                 1.0965
 Frc consts  --      1.4789                 1.4240                 1.5282
 IR Inten    --      1.0432                10.0349                35.1715

                     73                     74                     75
                      A                      A                      A
 Frequencies --   1591.8193              1659.6883              1680.6628
 Red. masses --      2.3268                 5.1908                 6.8910
 Frc consts  --      3.4738                 8.4244                11.4682
 IR Inten    --    604.3545                87.4248               207.6150

                     76                     77                     78
                      A                      A                      A
 Frequencies --   1853.5098              3071.9950              3079.9117
 Red. masses --     10.5895                 1.0381                 1.0595
 Frc consts  --     21.4346                 5.7723                 5.9213
 IR Inten    --    284.9675                17.6268                 7.8636

                     79                     80                     81
                      A                      A                      A
 Frequencies --   3092.1507              3112.9155              3135.6092
 Red. masses --      1.0575                 1.1044                 1.1061
 Frc consts  --      5.9571                 6.3056                 6.4074
 IR Inten    --     30.8736                 0.1367                 1.2839

                     82                     83                     84
                      A                      A                      A
 Frequencies --   3149.5858              3152.9788              3223.6166
 Red. masses --      1.1072                 1.1015                 1.0923
 Frc consts  --      6.4710                 6.4518                 6.6880
 IR Inten    --     54.3826                23.6917                 1.5468

                     85                     86                     87
                      A                      A                      A
 Frequencies --   3264.2342              3293.6756              3657.8301
 Red. masses --      1.0936                 1.0918                 1.0773
 Frc consts  --      6.8656                 6.9785                 8.4924
 IR Inten    --      9.2900                29.9189                50.4477

 - Thermochemistry -
 -------------------
 Temperature   298.150 Kelvin.  Pressure   1.00000 Atm.
 Atom     1 has atomic number  6 and mass  12.00000

 Molecular mass:   339.01192 amu.
 Principal axes and moments of inertia in atomic units:
                           1         2         3
     Eigenvalues --  4750.11579********************
           X            0.99984  -0.01784   0.00000
           Y            0.01784   0.99984  -0.00000
           Z           -0.00000   0.00000   1.00000
 This molecule is an asymmetric top.
 Rotational symmetry number  1.
 Warning -- assumption of classical behavior for rotation
           may cause significant error
 Rotational temperatures (Kelvin)      0.01823     0.00648     0.00498
 Rotational constants (GHZ):           0.37994     0.13499     0.10384
 Zero-point vibrational energy     571150.6 (Joules/Mol)
                                  136.50826 (Kcal/Mol)
 Warning -- explicit consideration of  33 degrees of freedom as
           vibrations may cause significant error
 Vibrational temperatures:     26.20    30.21    52.83    72.28   105.47
          (Kelvin)            106.37   150.39   159.20   216.64   249.14
                              277.41   278.96   339.81   345.97   361.14
                              391.93   396.75   455.44   487.19   516.25
                              559.90   562.33   643.98   652.76   656.47
                              717.80   766.44   779.76   796.86   819.06
                              844.77   863.38   884.64   939.57   954.93
                              996.39  1085.82  1097.08  1137.18  1155.99
                             1246.29  1252.17  1259.68  1274.84  1283.54
                             1297.39  1323.79  1336.47  1400.31  1458.49
                             1479.44  1548.01  1633.93  1668.52  1677.36
                             1683.66  1722.72  1805.20  1861.39  1863.21
                             1898.47  1927.26  1940.49  1945.69  2061.53
                             2075.39  2113.47  2173.27  2180.93  2194.53
                             2194.55  2212.82  2290.27  2387.92  2418.10
                             2666.78  4419.91  4431.30  4448.91  4478.79
                             4511.44  4531.55  4536.43  4638.06  4696.50
                             4738.86  5262.80

 Zero-point correction=                           0.217540 (Hartree/Particle)
 Thermal correction to Energy=                    0.237205
 Thermal correction to Enthalpy=                  0.238149
 Thermal correction to Gibbs Free Energy=         0.166307
 Sum of electronic and zero-point Energies=          -1950.074468
 Sum of electronic and thermal Energies=             -1950.054803
 Sum of electronic and thermal Enthalpies=           -1950.053859
 Sum of electronic and thermal Free Energies=        -1950.125701

                     E (Thermal)             CV                S
                      KCal/Mol        Cal/Mol-Kelvin    Cal/Mol-Kelvin
 Total                  148.848             72.543            151.205
 Electronic               0.000              0.000              0.000
 Translational            0.889              2.981             43.357
 Rotational               0.889              2.981             35.355
 Vibrational            147.071             66.582             72.492
 Vibration     1          0.593              1.986              6.820
 Vibration     2          0.593              1.986              6.538
 Vibration     3          0.594              1.982              5.429
 Vibration     4          0.595              1.978              4.808
 Vibration     5          0.599              1.967              4.063
 Vibration     6          0.599              1.966              4.046
 Vibration     7          0.605              1.946              3.368
 Vibration     8          0.606              1.941              3.257
 Vibration     9          0.618              1.902              2.665
 Vibration    10          0.627              1.875              2.401
 Vibration    11          0.635              1.850              2.201
 Vibration    12          0.635              1.848              2.190
 Vibration    13          0.655              1.785              1.831
 Vibration    14          0.658              1.778              1.799
 Vibration    15          0.663              1.761              1.723
 Vibration    16          0.675              1.724              1.581
 Vibration    17          0.677              1.718              1.560
 Vibration    18          0.703              1.642              1.328
 Vibration    19          0.719              1.598              1.219
 Vibration    20          0.734              1.557              1.127
 Vibration    21          0.757              1.493              1.003
 Vibration    22          0.759              1.490              0.997
 Vibration    23          0.807              1.366              0.803
 Vibration    24          0.812              1.353              0.785
 Vibration    25          0.814              1.347              0.777
 Vibration    26          0.854              1.252              0.661
 Vibration    27          0.888              1.178              0.581
 Vibration    28          0.897              1.157              0.561
 Vibration    29          0.909              1.131              0.536
 Vibration    30          0.925              1.098              0.506
 Vibration    31          0.944              1.059              0.472
 Vibration    32          0.958              1.032              0.450
 Vibration    33          0.974              1.000              0.425

 Optimization completed.
    -- Stationary point found.
 Normal termination of Gaussian 09 at Thu Nov 14 18:54:26 2019.
