 Q-Chem 5.0, Q-Chem, Inc., Pleasanton, CA (2017)
 Q-Chem 5.0.0 for Intel X86 EM64T Linux

User input:
--------------------------------------------------------------
$molecule
  0 1
    C     -5.8850653888    1.2485276222    0.2169643586
    N     -4.6148365768    0.6712965052    0.1442754525
    C     -3.4042293798    1.3229091055    0.1061891376
    O     -3.2363729909    2.5133960652    0.1294573590
    O     -2.4237232336    0.4107499718    0.0379678909
    C     -1.0893537805    0.9438254586   -0.0088387146
    C     -0.1301781247   -0.2240138484   -0.0834309874
    C      1.3156248667    0.2623663639   -0.1365505101
    C     -6.0936133610    2.6300491127    0.2627860152
    C     -7.3995706703    3.0843459670    0.3339561154
    C     -8.5088886159    2.2562518753    0.3624483165
    C     -8.2657085414    0.8906930633    0.3154629426
    C     -6.9811981273    0.3811048469    0.2438057615
    H     -4.5624644233   -0.3362093510    0.1155702556
    H     -0.9224485164    1.5507014193    0.8842424698
    H     -1.0029293345    1.5972933560   -0.8801912677
    H     -0.3642618935   -0.8213069013   -0.9687968991
    H     -0.2841523952   -0.8676709298    0.7868709884
    H      1.4903205477    0.8931407982   -1.0114654601
    H      2.0089540257   -0.5777224768   -0.1904668651
    H      1.5707895556    0.8464498438    0.7509228164
    H     -5.2582936836    3.3124029640    0.2428738608
    Cl    -9.6087554177   -0.2111412185    0.3473381294
    H     -6.8344291654   -0.6926059542    0.2088766481
    S     -7.6713237805    4.8765224224    0.3935065476
    H     -9.5171530304    2.6416664965    0.4183148583
    F     -6.6100374430    5.1462458464   -0.7896323887
    F     -8.8624274017    4.7959173810   -0.6954515179
    F     -6.5063752001    5.0862927603    1.4879468545
    F     -8.7588393883    4.7359846604    1.5803581536
    F     -7.9181391312    6.4618267740    0.4464796784

$end

$rem

    JOBTYPE               sp
    METHOD                CCSD(T)
    BASIS                 6-31+G*
    CC_BACKEND            XM

    MEM_TOTAL             60000
$end
--------------------------------------------------------------

             Standard Nuclear Orientation (Angstroms)
    I     Atom           X                Y                Z
 ----------------------------------------------------------------
    1      C      -0.5092543030    -1.0982540920    -0.0001460823
    2      N      -1.9063792614    -1.0998297100    -0.0003522313
    3      C      -2.7410275603    -0.0066776252    -0.0000870041
    4      O      -2.4018713527     1.1469901044     0.0003768168
    5      O      -4.0124106795    -0.4329000756    -0.0004236607
    6      C      -5.0089442179     0.6033542457    -0.0001813429
    7      C      -6.3666291001    -0.0645696135     0.0000865870
    8      C      -7.4840998393     0.9751384041     0.0003507624
    9      C       0.2521982688     0.0740869373    -0.0001077980
   10      C       1.6310794561    -0.0510608474     0.0000020302
   11      C       2.3003587507    -1.2631677545     0.0000816885
   12      C       1.5139216133    -2.4066762464     0.0000546204
   13      C       0.1317368299    -2.3407435571    -0.0000503811
   14      H      -2.3707349571    -1.9959371951    -0.0005622512
   15      H      -4.8640665437     1.2296594021    -0.8836416484
   16      H      -4.8637054994     1.2296253118     0.8832409887
   17      H      -6.4460471746    -0.7098468529     0.8791412231
   18      H      -6.4464338327    -0.7098044032    -0.8789647848
   19      H      -7.4286938927     1.6171727214     0.8827300766
   20      H      -8.4638092054     0.4960444415     0.0006496830
   21      H      -7.4291917113     1.6171010494    -0.8821119817
   22      H      -0.2274589778     1.0403638948    -0.0001616943
   23      Cl      2.2831695054    -3.9645874743     0.0001567331
   24      H      -0.4460946937    -3.2582002512    -0.0000678692
   25      S       2.6199830311     1.4692556241    -0.0000014318
   26      H       3.3792623560    -1.3282033948     0.0001601308
   27      F       1.7040394043     2.1469510688     1.1404692232
   28      F       3.6134202657     0.8983021603     1.1393621101
   29      F       1.7038555725     2.1470745156    -1.1402559670
   30      F       3.6132200318     0.8984042417    -1.1395920399
   31      F       3.5006020302     2.8114270123    -0.0000090527
 ----------------------------------------------------------------

   16   -1943.3534162592      3.96E-09 Convergence criterion met
 Total energy in the final basis set = -1943.3534162592
 CCSD total energy           = -1946.43336980
 CCSD(T) total energy       = -1946.54613839

                    Orbital Energies (a.u.)
 --------------------------------------------------------------

 Alpha MOs
 -- Occupied --
******* -92.404 -26.358 -26.358 -26.358 -26.358 -26.358 -20.635
-20.572 -15.642 -11.440 -11.339 -11.336 -11.318 -11.305 -11.285
-11.284 -11.277 -11.244 -11.235 -10.584  -9.344  -8.054  -8.050
 -8.050  -7.033  -7.033  -7.030  -1.758  -1.658  -1.658  -1.629
 -1.614  -1.499  -1.392  -1.298  -1.223  -1.160  -1.108  -1.085
 -1.048  -1.030  -0.968  -0.907  -0.896  -0.864  -0.864  -0.834
 -0.824  -0.814  -0.779  -0.775  -0.759  -0.752  -0.730  -0.722
 -0.714  -0.691  -0.689  -0.686  -0.682  -0.680  -0.671  -0.666
 -0.654  -0.648  -0.647  -0.645  -0.626  -0.621  -0.605  -0.596
 -0.575  -0.568  -0.564  -0.541  -0.532  -0.521  -0.506  -0.502
 -0.482  -0.481  -0.476  -0.472  -0.377  -0.343

          Ground-State Mulliken Net Atomic Charges

     Atom                 Charge (a.u.)
  ----------------------------------------
      1 C                    -0.018354
      2 N                    -0.934739
      3 C                     0.697160
      4 O                    -0.583283
      5 O                    -0.471927
      6 C                     0.078710
      7 C                    -0.280688
      8 C                    -0.690163
      9 C                     0.451033
     10 C                    -0.043454
     11 C                    -0.561664
     12 C                     0.266234
     13 C                    -0.905709
     14 H                     0.503136
     15 H                     0.213495
     16 H                     0.213520
     17 H                     0.204549
     18 H                     0.204547
     19 H                     0.197059
     20 H                     0.204760
     21 H                     0.197063
     22 H                     0.353021
     23 Cl                    0.266026
     24 H                     0.258859
     25 S                     3.092933
     26 H                     0.299585
     27 F                    -0.641049
     28 F                    -0.647821
     29 F                    -0.641077
     30 F                    -0.647799
     31 F                    -0.633964
  ----------------------------------------
  Sum of atomic charges =     0.000000

                    Cartesian Multipole Moments
 -----------------------------------------------------------------
    Charge (ESU x 10^10)
                 0.0000
    Dipole Moment (Debye)
         X      -5.6382      Y      -3.6574      Z      -0.0007
       Tot       6.7205
    Quadrupole Moments (Debye-Ang)
        XX    -114.9750     XY      -1.2145     YY    -134.2671
        XZ       0.0015     YZ      -0.0009     ZZ    -132.3610

 Total job time:  205584.49s(wall), 715104.71s(cpu)
        *  Thank you very much for using Q-Chem.  Have a nice day.  *
