 Q-Chem 5.0, Q-Chem, Inc., Pleasanton, CA (2017)
 Q-Chem 5.0.0 for Intel X86 EM64T Linux

User input:
--------------------------------------------------------------
$molecule
  0 1
    C     -5.8940239804    1.4635161989    0.3189639789
    N     -4.6594855421    0.8254275662    0.1730376319
    C     -3.4122119662    1.4023360648    0.2091219875
    O     -3.1720913642    2.5694633119    0.3743487039
    O     -2.4887978145    0.4470406578    0.0286777470
    C     -1.1237193586    0.8970771249    0.0408317856
    C     -0.2399912050   -0.3118800069   -0.1761589355
    C      1.2340452897    0.0840806412   -0.1762463744
    C     -7.0360316265    0.6595944673    0.2449778788
    C     -8.2776379407    1.2478343724    0.3837260774
    C     -8.4509943785    2.6060487216    0.5943447109
    C     -7.2989183539    3.3760994629    0.6628236785
    C     -6.0262012185    2.8384081578    0.5303896033
    H     -4.6672105204   -0.1728828439    0.0238277888
    H     -0.9221230549    1.3812924602    0.9993340851
    H     -0.9928490604    1.6430150960   -0.7467473938
    H     -0.5082709494   -0.7832474478   -1.1254840387
    H     -0.4381818893   -1.0437549107    0.6115329100
    H      1.4523221500    0.8020611361   -0.9704554868
    H      1.8722993985   -0.7863014253   -0.3325192805
    H      1.5226671703    0.5405161214    0.7736342134
    H     -6.9462737672   -0.4071204358    0.0814633848
    Cl    -7.4553129216    5.0863581386    0.9255099387
    H     -5.1557731760    3.4738102772    0.5901799913
    S     -9.7457090521    0.1927922133    0.2854387875
    H     -9.4293866429    3.0529060674    0.7011751512
    F     -9.0853678520   -0.9292163806    1.2433591642
    F    -10.4180189339    0.8952389484    1.5722339982
    F     -9.1774166082   -0.5913163642   -1.0086847237
    F    -10.5101477616    1.2333123687   -0.6811152286
    F    -11.0453570694   -0.7440897599    0.1979982650

$end

$rem

    JOBTYPE               sp
    METHOD                CCSD(T)
    BASIS                 6-31+G*
    CC_BACKEND            XM

    MEM_TOTAL             60000
$end
--------------------------------------------------------------

             Standard Nuclear Orientation (Angstroms)
    I     Atom           X                Y                Z
 ----------------------------------------------------------------
    1      C       0.5923961582    -0.2398940308     0.0003440085
    2      N       1.8357067886     0.3978483827     0.0005628507
    3      C       3.0769489729    -0.1930277562     0.0002497710
    4      O       3.3030477905    -1.3745619634     0.0000941569
    5      O       4.0127313024     0.7672610267     0.0001107998
    6      C       5.3734237929     0.3039731573    -0.0000607484
    7      C       6.2725830099     1.5209984122    -0.0000386922
    8      C       7.7429679529     1.1116863718    -0.0004894368
    9      C      -0.5407471693     0.5798204032     0.0002855832
   10      C      -1.7905245688    -0.0074784059     0.0000652567
   11      C      -1.9805615010    -1.3797192111    -0.0000711931
   12      C      -0.8369282990    -2.1652443681     0.0000118466
   13      C       0.4433693623    -1.6292429847     0.0002263424
   14      H       1.8401287525     1.4072677077     0.0005535853
   15      H       5.5322136490    -0.3188431976    -0.8836431093
   16      H       5.5323856480    -0.3190273827     0.8833603920
   17      H       6.0467111146     2.1305558632     0.8790523372
   18      H       6.0462713197     2.1308842766    -0.8787884387
   19      H       7.9897012717     0.5162622253     0.8818379674
   20      H       8.3923319398     1.9878603742    -0.0005035494
   21      H       7.9892301466     0.5165694084    -0.8831557387
   22      H      -0.4379268867     1.6578288118     0.0003754793
   23      Cl     -1.0142765634    -3.8935370623    -0.0001493665
   24      H       1.3067650391    -2.2769339795     0.0002662583
   25      S      -3.2469399875     1.0680964395    -0.0000656914
   26      H      -2.9651893408    -1.8256492978    -0.0002392589
   27      F      -2.6202048243     2.0283501317    -1.1392237643
   28      F      -3.9762025285     0.1914987815    -1.1406912213
   29      F      -2.6208127341     2.0277883147     1.1398879886
   30      F      -3.9768373512     0.1909591636     1.1397393087
   31      F      -4.5362345404     2.0231871092    -0.0001836079
 ----------------------------------------------------------------

   16   -1943.3539162755      4.15E-09 Convergence criterion met
 Total energy in the final basis set = -1943.3539162755
 CCSD total energy           = -1946.43382030
 CCSD(T) total energy       = -1946.54657107

                    Orbital Energies (a.u.)
 --------------------------------------------------------------

 Alpha MOs
 -- Occupied --
******* -92.411 -26.365 -26.365 -26.365 -26.365 -26.365 -20.636
-20.572 -15.642 -11.441 -11.336 -11.335 -11.321 -11.306 -11.288
-11.284 -11.274 -11.245 -11.235 -10.578  -9.351  -8.048  -8.044
 -8.044  -7.040  -7.040  -7.036  -1.764  -1.665  -1.664  -1.635
 -1.620  -1.500  -1.392  -1.299  -1.222  -1.161  -1.109  -1.086
 -1.048  -1.032  -0.969  -0.914  -0.888  -0.870  -0.869  -0.846
 -0.831  -0.801  -0.786  -0.782  -0.765  -0.756  -0.730  -0.723
 -0.715  -0.698  -0.693  -0.689  -0.687  -0.686  -0.677  -0.667
 -0.661  -0.655  -0.652  -0.648  -0.626  -0.622  -0.606  -0.596
 -0.575  -0.567  -0.564  -0.543  -0.533  -0.520  -0.506  -0.503
 -0.482  -0.480  -0.471  -0.471  -0.375  -0.344

          Ground-State Mulliken Net Atomic Charges

     Atom                 Charge (a.u.)
  ----------------------------------------
      1 C                     0.341483
      2 N                    -0.926970
      3 C                     0.756450
      4 O                    -0.581946
      5 O                    -0.481205
      6 C                     0.030786
      7 C                    -0.274781
      8 C                    -0.691984
      9 C                    -0.614883
     10 C                    -0.799474
     11 C                    -0.159422
     12 C                     0.339078
     13 C                     0.118247
     14 H                     0.502469
     15 H                     0.212613
     16 H                     0.212620
     17 H                     0.205076
     18 H                     0.205080
     19 H                     0.196723
     20 H                     0.205118
     21 H                     0.196723
     22 H                     0.270671
     23 Cl                    0.262994
     24 H                     0.335253
     25 S                     3.057167
     26 H                     0.301349
     27 F                    -0.652460
     28 F                    -0.641540
     29 F                    -0.652424
     30 F                    -0.641563
     31 F                    -0.631246
  ----------------------------------------
  Sum of atomic charges =     0.000000

                    Cartesian Multipole Moments
 -----------------------------------------------------------------
    Charge (ESU x 10^10)
                 0.0000
    Dipole Moment (Debye)
         X       4.9327      Y       1.9133      Z       0.0003
       Tot       5.2908
    Quadrupole Moments (Debye-Ang)
        XX    -122.3833     XY      13.8974     YY    -135.4019
        XZ       0.0002     YZ       0.0006     ZZ    -132.3619

 Total job time:  212430.60s(wall), 735372.83s(cpu)
        *  Thank you very much for using Q-Chem.  Have a nice day.  *
