 Gaussian 09, Revision E.01,
 Gaussian 09:  ES64L-G09RevE.01 30-Nov-2015

 -------------------------------------------------------------
 # MP2/Gen 6D SCF=Tight INT(grid=ultrafine) maxdisk=3489660928
 -------------------------------------------------------------

 ---------------------
 CP22CA_c2.MP2_6-31pGd
 ---------------------
 Symbolic Z-matrix:
 Charge =  0 Multiplicity = 1

                         Standard orientation:
 ---------------------------------------------------------------------
 Center     Atomic      Atomic             Coordinates (Angstroms)
 Number     Number       Type             X           Y           Z
 ---------------------------------------------------------------------
      1          6           0        0.592396    0.239894   -0.000344
      2          7           0        1.835707   -0.397848   -0.000563
      3          6           0        3.076949    0.193028   -0.000250
      4          8           0        3.303048    1.374562   -0.000094
      5          8           0        4.012731   -0.767261   -0.000111
      6          6           0        5.373424   -0.303973    0.000061
      7          6           0        6.272583   -1.520998    0.000039
      8          6           0        7.742968   -1.111686    0.000489
      9          6           0       -0.540747   -0.579820   -0.000286
     10          6           0       -1.790525    0.007478   -0.000065
     11          6           0       -1.980562    1.379719    0.000071
     12          6           0       -0.836928    2.165244   -0.000012
     13          6           0        0.443369    1.629243   -0.000226
     14          1           0        1.840129   -1.407268   -0.000554
     15          1           0        5.532214    0.318843    0.883643
     16          1           0        5.532386    0.319027   -0.883360
     17          1           0        6.046711   -2.130556   -0.879052
     18          1           0        6.046271   -2.130884    0.878788
     19          1           0        7.989701   -0.516262   -0.881838
     20          1           0        8.392332   -1.987860    0.000504
     21          1           0        7.989230   -0.516569    0.883156
     22          1           0       -0.437927   -1.657829   -0.000375
     23         17           0       -1.014277    3.893537    0.000149
     24          1           0        1.306765    2.276934   -0.000266
     25         16           0       -3.246940   -1.068096    0.000066
     26          1           0       -2.965189    1.825649    0.000239
     27          9           0       -2.620205   -2.028350    1.139224
     28          9           0       -3.976203   -0.191499    1.140691
     29          9           0       -2.620813   -2.027788   -1.139888
     30          9           0       -3.976837   -0.190959   -1.139739
     31          9           0       -4.536235   -2.023187    0.000184
 ---------------------------------------------------------------------

 SCF Done:  E(RHF) =  -1943.35391630     A.U. after   18 cycles
 E2 =    -0.3011665673D+01 EUMP2 =    -0.19463655819698D+04

 The electronic state is 1-A.
 Alpha  occ. eigenvalues -- -104.84609 -92.41059 -26.36482 -26.36479 -26.36477
 Alpha  occ. eigenvalues --  -26.36469 -26.36468 -20.63572 -20.57247 -15.64164
 Alpha  occ. eigenvalues --  -11.44070 -11.33632 -11.33550 -11.32113 -11.30586
 Alpha  occ. eigenvalues --  -11.28800 -11.28444 -11.27423 -11.24471 -11.23541
 Alpha  occ. eigenvalues --  -10.57849  -9.35094  -8.04792  -8.04446  -8.04446
 Alpha  occ. eigenvalues --   -7.03971  -7.03957  -7.03623  -1.76445  -1.66499
 Alpha  occ. eigenvalues --   -1.66404  -1.63509  -1.62026  -1.49968  -1.39189
 Alpha  occ. eigenvalues --   -1.29867  -1.22175  -1.16069  -1.10932  -1.08600
 Alpha  occ. eigenvalues --   -1.04825  -1.03154  -0.96855  -0.91364  -0.88803
 Alpha  occ. eigenvalues --   -0.87044  -0.86870  -0.84635  -0.83052  -0.80051
 Alpha  occ. eigenvalues --   -0.78559  -0.78202  -0.76516  -0.75562  -0.72982
 Alpha  occ. eigenvalues --   -0.72307  -0.71488  -0.69807  -0.69299  -0.68913
 Alpha  occ. eigenvalues --   -0.68735  -0.68649  -0.67677  -0.66711  -0.66075
 Alpha  occ. eigenvalues --   -0.65476  -0.65184  -0.64750  -0.62622  -0.62213
 Alpha  occ. eigenvalues --   -0.60561  -0.59599  -0.57502  -0.56685  -0.56430
 Alpha  occ. eigenvalues --   -0.54268  -0.53276  -0.51965  -0.50614  -0.50275
 Alpha  occ. eigenvalues --   -0.48233  -0.48043  -0.47095  -0.47092  -0.37516
 Alpha  occ. eigenvalues --   -0.34394
 Alpha virt. eigenvalues --    0.05130   0.07108   0.07163   0.07539   0.08041
 Alpha virt. eigenvalues --    0.08539   0.08815   0.09132   0.09662   0.10416
 Alpha virt. eigenvalues --    0.10460   0.10614   0.11734   0.12010   0.12284

 Mulliken charges:
               1
     1  C    0.341519
     2  N   -0.926971
     3  C    0.756452
     4  O   -0.581946
     5  O   -0.481204
     6  C    0.030786
     7  C   -0.274781
     8  C   -0.691984
     9  C   -0.614915
    10  C   -0.799478
    11  C   -0.159411
    12  C    0.339101
    13  C    0.118214
    14  H    0.502469
    15  H    0.212613
    16  H    0.212620
    17  H    0.205076
    18  H    0.205080
    19  H    0.196723
    20  H    0.205118
    21  H    0.196723
    22  H    0.270671
    23  Cl   0.262993
    24  H    0.335253
    25  S    3.057166
    26  H    0.301349
    27  F   -0.652460
    28  F   -0.641540
    29  F   -0.652424
    30  F   -0.641563
    31  F   -0.631246
 Sum of Mulliken charges =  -0.00000

 Dipole moment (field-independent basis, Debye):
    X=              4.9327    Y=             -1.9133    Z=             -0.0003  Tot=              5.2908
 Quadrupole moment (field-independent basis, Debye-Ang):
   XX=           -122.3833   YY=           -135.4019   ZZ=           -132.3619
   XY=            -13.8974   XZ=             -0.0002   YZ=              0.0006

 Normal termination of Gaussian 09 at Mon Dec  9 11:32:27 2019.
