 Gaussian 09, Revision E.01,
 Gaussian 09:  ES64L-G09RevE.01 30-Nov-2015

 -------------------------------------------------------------
 # MP2/Gen 5D SCF=Tight INT(grid=ultrafine) maxdisk=3489660928
 -------------------------------------------------------------

 ------------------------
 CP22CA_c2.MP2_GTMP2LARGE
 ------------------------
 Symbolic Z-matrix:
 Charge =  0 Multiplicity = 1

                         Standard orientation:
 ---------------------------------------------------------------------
 Center     Atomic      Atomic             Coordinates (Angstroms)
 Number     Number       Type             X           Y           Z
 ---------------------------------------------------------------------
      1          6           0        0.592396    0.239894   -0.000344
      2          7           0        1.835707   -0.397848   -0.000563
      3          6           0        3.076949    0.193028   -0.000250
      4          8           0        3.303048    1.374562   -0.000094
      5          8           0        4.012731   -0.767261   -0.000111
      6          6           0        5.373424   -0.303973    0.000061
      7          6           0        6.272583   -1.520998    0.000039
      8          6           0        7.742968   -1.111686    0.000489
      9          6           0       -0.540747   -0.579820   -0.000286
     10          6           0       -1.790525    0.007478   -0.000065
     11          6           0       -1.980562    1.379719    0.000071
     12          6           0       -0.836928    2.165244   -0.000012
     13          6           0        0.443369    1.629243   -0.000226
     14          1           0        1.840129   -1.407268   -0.000554
     15          1           0        5.532214    0.318843    0.883643
     16          1           0        5.532386    0.319027   -0.883360
     17          1           0        6.046711   -2.130556   -0.879052
     18          1           0        6.046271   -2.130884    0.878788
     19          1           0        7.989701   -0.516262   -0.881838
     20          1           0        8.392332   -1.987860    0.000504
     21          1           0        7.989230   -0.516569    0.883156
     22          1           0       -0.437927   -1.657829   -0.000375
     23         17           0       -1.014277    3.893537    0.000149
     24          1           0        1.306765    2.276934   -0.000266
     25         16           0       -3.246940   -1.068096    0.000066
     26          1           0       -2.965189    1.825649    0.000239
     27          9           0       -2.620205   -2.028350    1.139224
     28          9           0       -3.976203   -0.191499    1.140691
     29          9           0       -2.620813   -2.027788   -1.139888
     30          9           0       -3.976837   -0.190959   -1.139739
     31          9           0       -4.536235   -2.023187    0.000184
 ---------------------------------------------------------------------

 SCF Done:  E(RHF) =  -1943.79199734     A.U. after   15 cycles
 E2 =    -0.3932130266D+01 EUMP2 =    -0.19477241276017D+04

 The electronic state is 1-A.
 Alpha  occ. eigenvalues -- -104.85705 -92.37340 -26.34915 -26.34913 -26.34908
 Alpha  occ. eigenvalues --  -26.34906 -26.34836 -20.62052 -20.55432 -15.62864
 Alpha  occ. eigenvalues --  -11.42886 -11.32813 -11.32739 -11.31148 -11.29951
 Alpha  occ. eigenvalues --  -11.27792 -11.27420 -11.26504 -11.23927 -11.22999
 Alpha  occ. eigenvalues --  -10.58144  -9.31626  -8.04922  -8.04748  -8.04745
 Alpha  occ. eigenvalues --   -7.00512  -7.00500  -7.00181  -1.75522  -1.65904
 Alpha  occ. eigenvalues --   -1.65812  -1.62929  -1.61545  -1.49384  -1.38623
 Alpha  occ. eigenvalues --   -1.29385  -1.21604  -1.15494  -1.10239  -1.08160
 Alpha  occ. eigenvalues --   -1.04201  -1.02615  -0.96472  -0.90789  -0.88305
 Alpha  occ. eigenvalues --   -0.86534  -0.86368  -0.84211  -0.82764  -0.79668
 Alpha  occ. eigenvalues --   -0.78423  -0.77897  -0.76376  -0.75325  -0.72623
 Alpha  occ. eigenvalues --   -0.71966  -0.71315  -0.69775  -0.69383  -0.68855
 Alpha  occ. eigenvalues --   -0.68597  -0.68433  -0.67698  -0.66411  -0.65859
 Alpha  occ. eigenvalues --   -0.65156  -0.64914  -0.64549  -0.62366  -0.61857
 Alpha  occ. eigenvalues --   -0.60209  -0.59437  -0.57169  -0.56483  -0.56157
 Alpha  occ. eigenvalues --   -0.53931  -0.53034  -0.51849  -0.50375  -0.50136
 Alpha  occ. eigenvalues --   -0.48119  -0.47879  -0.46976  -0.46933  -0.37287
 Alpha  occ. eigenvalues --   -0.34255
 Alpha virt. eigenvalues --    0.03243   0.04052   0.05155   0.05370   0.05861
 Alpha virt. eigenvalues --    0.06204   0.07025   0.07317   0.08352   0.08628
 Alpha virt. eigenvalues --    0.08797   0.08976   0.09648   0.10112   0.10339

 Mulliken charges:
               1
     1  C    0.351704
     2  N   -0.461807
     3  C    0.424000
     4  O   -0.447575
     5  O   -0.216448
     6  C    0.054578
     7  C    0.249854
     8  C   -0.448521
     9  C   -0.584281
    10  C   -0.703725
    11  C   -0.114452
    12  C    0.750819
    13  C   -0.362800
    14  H    0.225067
    15  H    0.102103
    16  H    0.102072
    17  H    0.048683
    18  H    0.048659
    19  H    0.058637
    20  H    0.090749
    21  H    0.058642
    22  H    0.161840
    23  Cl  -0.210448
    24  H    0.254605
    25  S    2.676795
    26  H    0.174864
    27  F   -0.479140
    28  F   -0.466233
    29  F   -0.479144
    30  F   -0.466217
    31  F   -0.392879
 Sum of Mulliken charges =  -0.00000

 Dipole moment (field-independent basis, Debye):
    X=              4.8703    Y=             -1.8936    Z=             -0.0003  Tot=              5.2255
 Quadrupole moment (field-independent basis, Debye-Ang):
   XX=           -121.6145   YY=           -134.0428   ZZ=           -131.2362
   XY=            -13.8164   XZ=             -0.0001   YZ=              0.0007

 Normal termination of Gaussian 09 at Mon Dec  9 12:53:43 2019.
