 Gaussian 09, Revision E.01,

 ----------------------------------------------------------------------
 # M062X/6-311+G* SCF=Tight INT(grid=ultrafine) OPT IOP(2/17=4) Empiric
 alDispersion=GD3 SCRF=(SMD,Solvent=n-Pentadecane) maxdisk=2684354560
 ----------------------------------------------------------------------

 --------------------------------------------
 CP22CA_c2.M062X_6-311pGd_opt_Pentadecane_GD3
 --------------------------------------------
 Symbolic Z-matrix:
 Charge =  0 Multiplicity = 1

 SCF Done:  E(RM062X) =  -1950.30351214     A.U. after   15 cycles
 Optimization completed.
    -- Stationary point found.
 Normal termination of Gaussian 09 at Thu Nov 14 17:32:54 2019.
 Gaussian 09:  ES64L-G09RevE.01 30-Nov-2015

 ----------------------------------------------------------------------
 # M062X/6-311+G* SCF=Tight INT(grid=ultrafine) SCRF=(SMD,Solvent=n-Pen
 tadecane) EmpiricalDispersion=GD3 Freq=Noraman maxdisk=2684354560 geom
 =check guess=read IOP(2/17=4)
 ----------------------------------------------------------------------

 --------------------------------------------
 CP22CA_c2.M062X_6-311pGd_opt_Pentadecane_GD3
 --------------------------------------------
 Structure from the checkpoint file:  "CP22CA_c2.M062X_6-311pGd_opt_Pentadecane_GD3.chk"
 Charge =  0 Multiplicity = 1

                         Standard orientation:
 ---------------------------------------------------------------------
 Center     Atomic      Atomic             Coordinates (Angstroms)
 Number     Number       Type             X           Y           Z
 ---------------------------------------------------------------------
      1          6           0       -0.594802    0.244547   -0.000964
      2          7           0       -1.837008   -0.390811   -0.001448
      3          6           0       -3.077620    0.199285   -0.000527
      4          8           0       -3.301291    1.383213    0.000322
      5          8           0       -4.012294   -0.757437   -0.000700
      6          6           0       -5.377632   -0.301419    0.000257
      7          6           0       -6.268543   -1.523951    0.000186
      8          6           0       -7.739966   -1.122313    0.001123
      9          6           0        0.536985   -0.578749   -0.000783
     10          6           0        1.786588    0.008275   -0.000222
     11          6           0        1.984182    1.380055    0.000147
     12          6           0        0.841437    2.165886   -0.000100
     13          6           0       -0.440112    1.633613   -0.000652
     14          1           0       -1.837140   -1.401473   -0.001903
     15          1           0       -5.541216    0.318570   -0.884390
     16          1           0       -5.540268    0.317735    0.885662
     17          1           0       -6.039861   -2.132129    0.879696
     18          1           0       -6.040788   -2.131376   -0.880083
     19          1           0       -7.990032   -0.529082    0.884409
     20          1           0       -8.384422   -2.002807    0.001048
     21          1           0       -7.990918   -0.528287   -0.881378
     22          1           0        0.426385   -1.656444   -0.001004
     23         17           0        1.021620    3.896816    0.000302
     24          1           0       -1.300997    2.284524   -0.000759
     25         16           0        3.240340   -1.069434    0.000186
     26          1           0        2.970164    1.823895    0.000598
     27          9           0        2.619450   -2.031983   -1.140792
     28          9           0        3.978027   -0.197110   -1.139846
     29          9           0        2.618073   -2.032982    1.139595
     30          9           0        3.976629   -0.198083    1.141855
     31          9           0        4.532348   -2.028727    0.000562
 ---------------------------------------------------------------------

 SCF Done:  E(RM062X) =  -1950.30351214     A.U. after    2 cycles

 The electronic state is 1-A.
 Alpha  occ. eigenvalues -- -102.69107 -90.28928 -25.29299 -25.29298 -25.29295
 Alpha  occ. eigenvalues --  -25.29294 -25.29150 -19.68179 -19.62342 -14.81228
 Alpha  occ. eigenvalues --  -10.71951 -10.63526 -10.63473 -10.62256 -10.60135
 Alpha  occ. eigenvalues --  -10.58870 -10.58587 -10.57654 -10.54297 -10.53154
 Alpha  occ. eigenvalues --   -9.83375  -8.61234  -7.55892  -7.55209  -7.55193
 Alpha  occ. eigenvalues --   -6.53663  -6.53652  -6.53211  -1.51208  -1.41115
 Alpha  occ. eigenvalues --   -1.41034  -1.38097  -1.36611  -1.26383  -1.16460
 Alpha  occ. eigenvalues --   -1.09023  -1.02715  -0.98174  -0.94112  -0.90688
 Alpha  occ. eigenvalues --   -0.87936  -0.86473  -0.80964  -0.77364  -0.75155
 Alpha  occ. eigenvalues --   -0.74597  -0.73808  -0.71389  -0.68742  -0.66980
 Alpha  occ. eigenvalues --   -0.65931  -0.65018  -0.63170  -0.62565  -0.61868
 Alpha  occ. eigenvalues --   -0.60419  -0.60105  -0.59155  -0.57234  -0.56353
 Alpha  occ. eigenvalues --   -0.56325  -0.56234  -0.55954  -0.55567  -0.54621
 Alpha  occ. eigenvalues --   -0.53465  -0.53435  -0.52432  -0.52359  -0.51698
 Alpha  occ. eigenvalues --   -0.50576  -0.50513  -0.47858  -0.47848  -0.46289
 Alpha  occ. eigenvalues --   -0.45388  -0.44071  -0.43895  -0.41246  -0.41214
 Alpha  occ. eigenvalues --   -0.40109  -0.39513  -0.38863  -0.38122  -0.33448
 Alpha  occ. eigenvalues --   -0.30499
 Alpha virt. eigenvalues --   -0.02751  -0.02707  -0.01146   0.00237   0.01812
 Alpha virt. eigenvalues --    0.01995   0.03004   0.03143   0.03824   0.04167
 Alpha virt. eigenvalues --    0.04191   0.04695   0.04885   0.05171   0.05992

 Mulliken charges:
               1
     1  C   -0.944427
     2  N   -0.495588
     3  C    0.049417
     4  O   -0.296551
     5  O   -0.057009
     6  C   -0.362684
     7  C   -0.145058
     8  C   -1.045864
     9  C    0.104251
    10  C   -1.965445
    11  C    0.303636
    12  C    0.713623
    13  C   -0.431557
    14  H    0.434067
    15  H    0.276027
    16  H    0.276027
    17  H    0.263734
    18  H    0.263731
    19  H    0.264923
    20  H    0.279153
    21  H    0.264918
    22  H    0.291293
    23  Cl   0.429678
    24  H    0.337488
    25  S    0.587173
    26  H    0.337556
    27  F    0.070731
    28  F    0.052337
    29  F    0.070646
    30  F    0.052333
    31  F    0.021440
 Sum of Mulliken charges =  -0.00000

 Dipole moment (field-independent basis, Debye):
    X=             -5.6803    Y=             -1.7860    Z=             -0.0019  Tot=              5.9545
 Quadrupole moment (field-independent basis, Debye-Ang):
   XX=           -122.6344   YY=           -134.5345   ZZ=           -132.5007
   XY=             15.2792   XZ=              0.0012   YZ=              0.0008

  Exact polarizability: 239.594   7.407 203.639   0.008   0.020 116.279
 Approx polarizability: 220.659   5.523 227.609   0.014   0.028 139.106

                      1                      2                      3
                      A                      A                      A
 Frequencies --     10.5301                17.6966                34.0103
 Red. masses --      4.3250                 5.2252                 7.8846
 Frc consts  --      0.0003                 0.0010                 0.0054
 IR Inten    --      2.7497                 1.0923                 0.0833

                      4                      5                      6
                      A                      A                      A
 Frequencies --     51.1046                68.1388                72.3453
 Red. masses --      5.5217                 2.9638                 3.4003
 Frc consts  --      0.0085                 0.0081                 0.0105
 IR Inten    --      0.2578                 3.6251                 1.2487

                      7                      8                      9
                      A                      A                      A
 Frequencies --    101.0758               114.8333               144.5364
 Red. masses --      6.6557                 8.8227                 8.6585
 Frc consts  --      0.0401                 0.0685                 0.1066
 IR Inten    --      0.1125                 2.6626                 1.3643

                     10                     11                     12
                      A                      A                      A
 Frequencies --    166.0734               193.0216               194.4453
 Red. masses --      3.0824                 5.7355                 9.0425
 Frc consts  --      0.0501                 0.1259                 0.2014
 IR Inten    --      4.1095                 0.3335                 1.1765

                     13                     14                     15
                      A                      A                      A
 Frequencies --    219.5999               238.3667               248.6366
 Red. masses --     10.2343                 1.1705                 3.8536
 Frc consts  --      0.2908                 0.0392                 0.1404
 IR Inten    --      0.7058                 0.1401                 1.1671

                     16                     17                     18
                      A                      A                      A
 Frequencies --    269.4387               272.7876               332.4327
 Red. masses --      5.7463                 7.5634                 6.1247
 Frc consts  --      0.2458                 0.3316                 0.3988
 IR Inten    --      0.5323                 0.0059                 1.6959

                     19                     20                     21
                      A                      A                      A
 Frequencies --    337.5286               365.2930               386.0517
 Red. masses --     18.8785                 6.2194                13.4401
 Frc consts  --      1.2672                 0.4890                 1.1802
 IR Inten    --      0.0003                39.4375                 2.5464

                     22                     23                     24
                      A                      A                      A
 Frequencies --    388.5904               432.4166               452.3240
 Red. masses --     11.4348                 8.1314                18.8053
 Frc consts  --      1.0173                 0.8958                 2.2669
 IR Inten    --      2.1594                 4.1396                 0.0068

                     25                     26                     27
                      A                      A                      A
 Frequencies --    470.4650               492.8718               513.8145
 Red. masses --      5.1614                 6.9678                 1.1734
 Frc consts  --      0.6731                 0.9973                 0.1825
 IR Inten    --      0.1352                 3.3149                89.6286

                     28                     29                     30
                      A                      A                      A
 Frequencies --    535.5276               551.9584               570.3662
 Red. masses --     13.0877                13.6336                 5.0726
 Frc consts  --      2.2114                 2.4472                 0.9723
 IR Inten    --      7.0810                14.9289                 4.5822

                     31                     32                     33
                      A                      A                      A
 Frequencies --    581.5512               593.9031               610.8142
 Red. masses --     18.5743                18.8687                 5.9578
 Frc consts  --      3.7012                 3.9212                 1.3096
 IR Inten    --    124.3301                 0.1997                 4.2115

                     34                     35                     36
                      A                      A                      A
 Frequencies --    643.5850               662.4284               688.2921
 Red. masses --     12.3557                 8.0516                 2.4789
 Frc consts  --      3.0153                 2.0817                 0.6919
 IR Inten    --     53.5811                 9.3979                25.4948

                     37                     38                     39
                      A                      A                      A
 Frequencies --    754.1697               766.5704               790.9074
 Red. masses --     12.5047                 1.1328                 7.4181
 Frc consts  --      4.1905                 0.3922                 2.7340
 IR Inten    --    274.0684                 8.3513                18.5790

                     40                     41                     42
                      A                      A                      A
 Frequencies --    791.8508               848.1684               855.2078
 Red. masses --      9.2284                19.3994                23.3645
 Frc consts  --      3.4093                 8.2225                10.0681
 IR Inten    --     36.2972               409.6140               406.9329

                     43                     44                     45
                      A                      A                      A
 Frequencies --    870.4271               877.7908               883.4899
 Red. masses --      1.5069                14.9757                 1.4630
 Frc consts  --      0.6727                 6.7986                 0.6728
 IR Inten    --     97.6261               335.6087                 9.2613

                     46                     47                     48
                      A                      A                      A
 Frequencies --    907.7664               929.3645               935.0722
 Red. masses --      1.1526                 1.7885                 1.3780
 Frc consts  --      0.5596                 0.9102                 0.7099
 IR Inten    --      2.6317                 2.7633                13.3334

                     49                     50                     51
                      A                      A                      A
 Frequencies --    969.1929              1012.7008              1028.0185
 Red. masses --      4.9272                 5.9436                 7.2258
 Frc consts  --      2.7269                 3.5914                 4.4992
 IR Inten    --     77.6656                 2.5749                10.8766

                     52                     53                     54
                      A                      A                      A
 Frequencies --   1077.4025              1133.9704              1157.0924
 Red. masses --      2.4773                 4.8767                 1.5759
 Frc consts  --      1.6943                 3.6947                 1.2431
 IR Inten    --      6.8243               152.3170                12.0585

                     55                     56                     57
                      A                      A                      A
 Frequencies --   1167.1084              1173.1245              1195.7145
 Red. masses --      1.9757                 2.0459                 1.6543
 Frc consts  --      1.5856                 1.6589                 1.3935
 IR Inten    --     27.1437                31.5638                 1.0511

                     58                     59                     60
                      A                      A                      A
 Frequencies --   1258.5984              1293.0553              1302.1502
 Red. masses --      2.2549                 1.1856                 2.8751
 Frc consts  --      2.1045                 1.1680                 2.8723
 IR Inten    --    627.8293                 1.2513               539.0949

                     61                     62                     63
                      A                      A                      A
 Frequencies --   1316.2105              1338.6927              1347.8356
 Red. masses --      2.2110                 1.0678                 1.4336
 Frc consts  --      2.2568                 1.1274                 1.5344
 IR Inten    --     18.9343                 1.0903                15.4034

                     64                     65                     66
                      A                      A                      A
 Frequencies --   1354.3472              1433.7824              1443.1571
 Red. masses --      2.5470                 1.2808                 1.5283
 Frc consts  --      2.7525                 1.5514                 1.8754
 IR Inten    --     26.3602                 4.1727                42.7181

                     67                     68                     69
                      A                      A                      A
 Frequencies --   1472.7825              1503.3908              1516.6033
 Red. masses --      2.9222                 1.0659                 3.4504
 Frc consts  --      3.7345                 1.4194                 4.6759
 IR Inten    --    163.0760                 0.9870               105.0459

                     70                     71                     72
                      A                      A                      A
 Frequencies --   1519.6938              1521.0882              1533.9953
 Red. masses --      1.0368                 1.0853                 1.0982
 Frc consts  --      1.4108                 1.4794                 1.5226
 IR Inten    --     11.9521                 0.9575                46.0504

                     73                     74                     75
                      A                      A                      A
 Frequencies --   1584.8877              1656.1317              1680.3772
 Red. masses --      2.2371                 5.1196                 6.4901
 Frc consts  --      3.3107                 8.2733                10.7972
 IR Inten    --    812.7984               186.4091               117.9710

                     76                     77                     78
                      A                      A                      A
 Frequencies --   1838.7344              3071.1762              3080.3078
 Red. masses --     10.4488                 1.0377                 1.0600
 Frc consts  --     20.8139                 5.7669                 5.9259
 IR Inten    --    378.7183                21.6951                11.7573

                     79                     80                     81
                      A                      A                      A
 Frequencies --   3094.2896              3113.9711              3136.6519
 Red. masses --      1.0574                 1.1044                 1.1055
 Frc consts  --      5.9652                 6.3094                 6.4082
 IR Inten    --     33.8410                 0.2101                 7.0561

                     82                     83                     84
                      A                      A                      A
 Frequencies --   3149.7866              3150.9761              3236.0812
 Red. masses --      1.1018                 1.1084                 1.0924
 Frc consts  --      6.4404                 6.4841                 6.7404
 IR Inten    --     28.0239                61.7427                 6.1953

                     85                     86                     87
                      A                      A                      A
 Frequencies --   3260.3931              3279.5919              3640.4826
 Red. masses --      1.0941                 1.0929                 1.0774
 Frc consts  --      6.8522                 6.9258                 8.4132
 IR Inten    --     15.1754                22.7951                79.3894

 - Thermochemistry -
 -------------------
 Temperature   298.150 Kelvin.  Pressure   1.00000 Atm.
 Atom     1 has atomic number  6 and mass  12.00000

 Molecular mass:   339.01192 amu.
 Principal axes and moments of inertia in atomic units:
                           1         2         3
     Eigenvalues --  4056.50268********************
           X            0.99976   0.02193  -0.00001
           Y           -0.02193   0.99976  -0.00000
           Z            0.00001   0.00000   1.00000
 This molecule is an asymmetric top.
 Rotational symmetry number  1.
 Warning -- assumption of classical behavior for rotation
           may cause significant error
 Rotational temperatures (Kelvin)      0.02135     0.00564     0.00464
 Rotational constants (GHZ):           0.44490     0.11753     0.09665
 Zero-point vibrational energy     569908.1 (Joules/Mol)
                                  136.21130 (Kcal/Mol)
 Warning -- explicit consideration of  33 degrees of freedom as
           vibrations may cause significant error
 Vibrational temperatures:     15.15    25.46    48.93    73.53    98.04
          (Kelvin)            104.09   145.43   165.22   207.96   238.94
                              277.71   279.76   315.95   342.96   357.73
                              387.66   392.48   478.30   485.63   525.57
                              555.44   559.09   622.15   650.79   676.89
                              709.13   739.26   770.50   794.14   820.63
                              836.72   854.49   878.82   925.97   953.09
                              990.30  1085.08  1102.92  1137.94  1139.30
                             1220.32  1230.45  1252.35  1262.94  1271.14
                             1306.07  1337.15  1345.36  1394.45  1457.05
                             1479.09  1550.14  1631.53  1664.80  1679.21
                             1687.86  1720.36  1810.84  1860.42  1873.50
                             1893.73  1926.08  1939.23  1948.60  2062.89
                             2076.38  2119.00  2163.04  2182.05  2186.50
                             2188.50  2207.07  2280.30  2382.80  2417.68
                             2645.53  4418.73  4431.87  4451.99  4480.30
                             4512.94  4531.83  4533.55  4655.99  4690.97
                             4718.60  5237.84

 Zero-point correction=                           0.217067 (Hartree/Particle)
 Thermal correction to Energy=                    0.236865
 Thermal correction to Enthalpy=                  0.237810
 Thermal correction to Gibbs Free Energy=         0.164917
 Sum of electronic and zero-point Energies=          -1950.086446
 Sum of electronic and thermal Energies=             -1950.066647
 Sum of electronic and thermal Enthalpies=           -1950.065703
 Sum of electronic and thermal Free Energies=        -1950.138595

                     E (Thermal)             CV                S
                      KCal/Mol        Cal/Mol-Kelvin    Cal/Mol-Kelvin
 Total                  148.635             72.787            153.415
 Electronic               0.000              0.000              0.000
 Translational            0.889              2.981             43.357
 Rotational               0.889              2.981             35.407
 Vibrational            146.858             66.825             74.651
 Vibration     1          0.593              1.987              7.908
 Vibration     2          0.593              1.986              6.877
 Vibration     3          0.594              1.983              5.581
 Vibration     4          0.595              1.977              4.774
 Vibration     5          0.598              1.969              4.206
 Vibration     6          0.598              1.967              4.089
 Vibration     7          0.604              1.948              3.433
 Vibration     8          0.608              1.937              3.186
 Vibration     9          0.616              1.909              2.743
 Vibration    10          0.624              1.884              2.479
 Vibration    11          0.635              1.850              2.199
 Vibration    12          0.635              1.848              2.185
 Vibration    13          0.647              1.811              1.962
 Vibration    14          0.656              1.782              1.815
 Vibration    15          0.662              1.765              1.740
 Vibration    16          0.674              1.729              1.600
 Vibration    17          0.676              1.723              1.578
 Vibration    18          0.714              1.611              1.248
 Vibration    19          0.718              1.601              1.224
 Vibration    20          0.739              1.544              1.099
 Vibration    21          0.755              1.500              1.015
 Vibration    22          0.757              1.495              1.006
 Vibration    23          0.793              1.400              0.851
 Vibration    24          0.811              1.356              0.789
 Vibration    25          0.827              1.316              0.736
 Vibration    26          0.849              1.266              0.676
 Vibration    27          0.869              1.219              0.624
 Vibration    28          0.891              1.171              0.575
 Vibration    29          0.907              1.135              0.540
 Vibration    30          0.926              1.095              0.504
 Vibration    31          0.938              1.071              0.482
 Vibration    32          0.952              1.045              0.460
 Vibration    33          0.970              1.009              0.431

 Normal termination of Gaussian 09 at Thu Nov 14 18:56:45 2019.
