 Gaussian 16, Revision C.01,

 ----------------------------------------------------------------------
 # M062X/6-311+G* SCF=Tight INT(grid=ultrafine) OPT(ReCalcFC=5) IOP(2/1
 7=4) Symmetry=None EmpiricalDispersion=GD3 SCRF=(SMD,Solvent=n-Pentade
 cane)
 ----------------------------------------------------------------------

 -----------------------------------------
 CP22CA.M062X_6-311pGd_opt_Pentadecane_GD3
 -----------------------------------------
 Symbolic Z-matrix:
 Charge =  0 Multiplicity = 1

 SCF Done:  E(RM062X) =  -1950.30303628     A.U. after   15 cycles
 SCF Done:  E(RM062X) =  -1950.30346829     A.U. after   13 cycles
 SCF Done:  E(RM062X) =  -1950.30347027     A.U. after   11 cycles
 SCF Done:  E(RM062X) =  -1950.30347134     A.U. after   11 cycles
 SCF Done:  E(RM062X) =  -1950.30347136     A.U. after    8 cycles
 Optimization completed.
    -- Stationary point found.
 Normal termination of Gaussian 16 at Fri Sep  4 22:05:03 2020.
 Gaussian 16:  ES64L-G16RevC.01  3-Jul-2019

 ----------------------------------------------------------------------
 # M062X/6-311+G* SCF=Tight INT(grid=ultrafine) EmpiricalDispersion=GD3
  Symmetry=None SCRF=(SMD,Solvent=n-Pentadecane) Freq=Noraman geom=chec
 k guess=read IOP(2/17=4)
 ----------------------------------------------------------------------

 -----------------------------------------
 CP22CA.M062X_6-311pGd_opt_Pentadecane_GD3
 -----------------------------------------
 Structure from the checkpoint file:  "CP22CA.M062X_6-311pGd_opt_Pentadecane_GD3.chk"
 Charge =  0 Multiplicity = 1

                          Input orientation:
 ---------------------------------------------------------------------
 Center     Atomic      Atomic             Coordinates (Angstroms)
 Number     Number       Type             X           Y           Z
 ---------------------------------------------------------------------
      1          6           0       -5.881169    1.252326    0.219643
      2          7           0       -4.612597    0.675571    0.154110
      3          6           0       -3.402148    1.324085    0.108771
      4          8           0       -3.235862    2.517141    0.122762
      5          8           0       -2.423115    0.414687    0.045836
      6          6           0       -1.084694    0.943045   -0.011624
      7          6           0       -0.129455   -0.227999   -0.074367
      8          6           0        1.315239    0.257235   -0.138951
      9          6           0       -6.093472    2.633511    0.266034
     10          6           0       -7.401280    3.083270    0.333594
     11          6           0       -8.510278    2.255030    0.358315
     12          6           0       -8.261046    0.890388    0.308694
     13          6           0       -6.976623    0.382390    0.239383
     14          1           0       -4.566638   -0.333445    0.130548
     15          1           0       -0.912501    1.558527    0.874472
     16          1           0       -0.998275    1.582903   -0.892979
     17          1           0       -0.365998   -0.835787   -0.952090
     18          1           0       -0.279368   -0.859386    0.805742
     19          1           0        1.487738    0.876126   -1.023187
     20          1           0        2.008123   -0.584450   -0.184170
     21          1           0        1.574421    0.852801    0.740126
     22          1           0       -5.259577    3.317590    0.249010
     23         17           0       -9.605755   -0.213703    0.333543
     24          1           0       -6.821740   -0.690109    0.200906
     25         16           0       -7.677555    4.873573    0.393639
     26          1           0       -9.520334    2.636622    0.412176
     27          9           0       -6.623799    5.153256   -0.795754
     28          9           0       -8.875467    4.796830   -0.689359
     29          9           0       -6.507593    5.096038    1.482298
     30          9           0       -8.758715    4.738308    1.588003
     31          9           0       -7.929547    6.462916    0.446665
 ---------------------------------------------------------------------

 SCF Done:  E(RM062X) =  -1950.30347136     A.U. after    2 cycles

 Alpha  occ. eigenvalues -- -102.69514 -90.28450 -25.28824 -25.28821 -25.28820
 Alpha  occ. eigenvalues --  -25.28816 -25.28683 -19.68134 -19.62270 -14.81186
 Alpha  occ. eigenvalues --  -10.71884 -10.63719 -10.63434 -10.61983 -10.60052
 Alpha  occ. eigenvalues --  -10.58558 -10.58389 -10.58038 -10.54252 -10.53099
 Alpha  occ. eigenvalues --   -9.83779  -8.60757  -7.56297  -7.55611  -7.55600
 Alpha  occ. eigenvalues --   -6.53184  -6.53174  -6.52734  -1.50730  -1.40630
 Alpha  occ. eigenvalues --   -1.40569  -1.37619  -1.36131  -1.26325  -1.16400
 Alpha  occ. eigenvalues --   -1.08984  -1.02780  -0.98085  -0.93938  -0.90623
 Alpha  occ. eigenvalues --   -0.87975  -0.86288  -0.80902  -0.77091  -0.75156
 Alpha  occ. eigenvalues --   -0.74112  -0.73884  -0.69861  -0.69073  -0.67957
 Alpha  occ. eigenvalues --   -0.65132  -0.64588  -0.62707  -0.62346  -0.61817
 Alpha  occ. eigenvalues --   -0.60256  -0.60040  -0.58670  -0.57313  -0.55963
 Alpha  occ. eigenvalues --   -0.55871  -0.55839  -0.55487  -0.55225  -0.54560
 Alpha  occ. eigenvalues --   -0.53357  -0.53033  -0.51950  -0.51944  -0.51643
 Alpha  occ. eigenvalues --   -0.50595  -0.50452  -0.47860  -0.47825  -0.46185
 Alpha  occ. eigenvalues --   -0.45284  -0.44032  -0.43837  -0.41197  -0.41129
 Alpha  occ. eigenvalues --   -0.40259  -0.39922  -0.38775  -0.38077  -0.33496
 Alpha  occ. eigenvalues --   -0.30496
 Alpha virt. eigenvalues --   -0.02785  -0.02230  -0.00938  -0.00002   0.01722
 Alpha virt. eigenvalues --    0.02173   0.02829   0.03092   0.03741   0.04109
 Alpha virt. eigenvalues --    0.04436   0.04657   0.05048   0.05581   0.05914

 Mulliken charges:
               1
     1  C   -1.428498
     2  N   -0.497297
     3  C   -0.043257
     4  O   -0.296200
     5  O   -0.048229
     6  C   -0.318179
     7  C   -0.151344
     8  C   -1.046449
     9  C    0.207942
    10  C   -0.934031
    11  C   -0.054178
    12  C    0.209921
    13  C   -0.109782
    14  H    0.437150
    15  H    0.276903
    16  H    0.277125
    17  H    0.263285
    18  H    0.263323
    19  H    0.265318
    20  H    0.278843
    21  H    0.265295
    22  H    0.351282
    23  Cl   0.420232
    24  H    0.282912
    25  S    0.531852
    26  H    0.332884
    27  F    0.070926
    28  F    0.049492
    29  F    0.069361
    30  F    0.050242
    31  F    0.023156
 Sum of Mulliken charges =  -0.00000

 Dipole moment (field-independent basis, Debye):
    X=              3.9160    Y=             -6.6327    Z=             -0.3399  Tot=              7.7100
 Quadrupole moment (field-independent basis, Debye-Ang):
   XX=           -161.9354   YY=           -164.1802   ZZ=           -132.6178
   XY=             43.0819   XZ=              2.0921   YZ=             -2.1929

  Exact polarizability:     244.682      -0.990     198.574      -5.652       2.205     116.559
 Approx polarizability:     232.534       6.978     214.996      -3.835       1.667     139.295

                      1                      2                      3
                      A                      A                      A
 Frequencies --      3.7946                25.8845                38.5358
 Red. masses --      2.8264                 6.1960                 9.3398
 Frc consts  --      0.0000                 0.0024                 0.0082
 IR Inten    --      1.6453                 0.1617                 0.0016

                      4                      5                      6
                      A                      A                      A
 Frequencies --     50.1687                71.4494                77.1456
 Red. masses --      5.6627                 2.8726                 4.5254
 Frc consts  --      0.0084                 0.0086                 0.0159
 IR Inten    --      0.1235                 3.2958                 1.4779

                      7                      8                      9
                      A                      A                      A
 Frequencies --    104.5028               110.6871               151.5291
 Red. masses --      6.5959                 7.8153                10.0818
 Frc consts  --      0.0424                 0.0564                 0.1364
 IR Inten    --      0.4789                 0.0991                 2.3078

                     10                     11                     12
                      A                      A                      A
 Frequencies --    167.6620               193.7083               193.8823
 Red. masses --      3.1721                10.6766                 5.7633
 Frc consts  --      0.0525                 0.2360                 0.1276
 IR Inten    --      3.8139                 0.2712                 0.1344

                     13                     14                     15
                      A                      A                      A
 Frequencies --    234.1808               236.5637               252.4505
 Red. masses --      1.2937                 3.8154                 4.3626
 Frc consts  --      0.0418                 0.1258                 0.1638
 IR Inten    --      0.5409                 3.3610                 0.9465

                     16                     17                     18
                      A                      A                      A
 Frequencies --    272.2698               275.2935               316.2882
 Red. masses --      9.4953                 7.7458                 6.6510
 Frc consts  --      0.4147                 0.3459                 0.3920
 IR Inten    --      0.2520                 0.0272                 8.2295

                     19                     20                     21
                      A                      A                      A
 Frequencies --    338.3002               358.0049               388.7143
 Red. masses --     18.8570                 5.2881                15.8697
 Frc consts  --      1.2715                 0.3993                 1.4128
 IR Inten    --      0.0010                31.9123                 5.2207

                     22                     23                     24
                      A                      A                      A
 Frequencies --    390.9798               449.9898               452.9636
 Red. masses --     11.7575                 7.4408                11.3411
 Frc consts  --      1.0589                 0.8877                 1.3710
 IR Inten    --      1.8320                 0.5732                 0.2824

                     25                     26                     27
                      A                      A                      A
 Frequencies --    456.3081               500.2168               535.3632
 Red. masses --      6.5894                 6.7976                 6.0434
 Frc consts  --      0.8084                 1.0021                 1.0205
 IR Inten    --      2.5928                 7.7312                 0.2584

                     28                     29                     30
                      A                      A                      A
 Frequencies --    546.1464               553.0321               570.5968
 Red. masses --      1.4616                12.8699                 3.6481
 Frc consts  --      0.2569                 2.3191                 0.6998
 IR Inten    --    102.0906                10.2369                12.5444

                     31                     32                     33
                      A                      A                      A
 Frequencies --    582.4287               594.8784               612.7817
 Red. masses --     18.6761                18.7728                 5.0811
 Frc consts  --      3.7327                 3.9141                 1.1241
 IR Inten    --    112.4963                 0.1382                 0.0895

                     34                     35                     36
                      A                      A                      A
 Frequencies --    646.5486               662.9569               690.4829
 Red. masses --     14.4180                 7.3773                 2.5223
 Frc consts  --      3.5511                 1.9104                 0.7085
 IR Inten    --     54.4465                13.4324                22.2680

                     37                     38                     39
                      A                      A                      A
 Frequencies --    747.3111               765.3775               790.9832
 Red. masses --     12.1760                 1.1218                 7.8909
 Frc consts  --      4.0064                 0.3872                 2.9088
 IR Inten    --    229.9036                 7.5058                17.1037

                     40                     41                     42
                      A                      A                      A
 Frequencies --    801.9534               848.6459               852.7144
 Red. masses --      9.5476                20.0875                21.5230
 Frc consts  --      3.6178                 8.5237                 9.2206
 IR Inten    --     61.0622               408.4977               455.5746

                     43                     44                     45
                      A                      A                      A
 Frequencies --    868.5170               873.7296               898.3471
 Red. masses --      1.4995                14.3487                 1.5258
 Frc consts  --      0.6664                 6.4538                 0.7255
 IR Inten    --     78.7869               205.5406                29.3039

                     46                     47                     48
                      A                      A                      A
 Frequencies --    905.7834               914.1898               929.4899
 Red. masses --      1.1547                 1.3356                 1.7636
 Frc consts  --      0.5582                 0.6577                 0.8977
 IR Inten    --      3.2456                 7.4424                42.7684

                     49                     50                     51
                      A                      A                      A
 Frequencies --    970.8235              1013.2331              1027.6726
 Red. masses --      5.3845                 5.9395                 7.2830
 Frc consts  --      2.9900                 3.5927                 4.5318
 IR Inten    --     71.1141                 3.4425                39.9530

                     52                     53                     54
                      A                      A                      A
 Frequencies --   1077.2321              1134.2890              1161.1241
 Red. masses --      2.4815                 5.8992                 1.5889
 Frc consts  --      1.6966                 4.4719                 1.2622
 IR Inten    --     17.7033                95.7784                27.4783

                     55                     56                     57
                      A                      A                      A
 Frequencies --   1169.0445              1175.6760              1194.9735
 Red. masses --      2.2934                 1.6950                 1.6607
 Frc consts  --      1.8467                 1.3804                 1.3972
 IR Inten    --     16.0527               111.6079                 1.0357

                     58                     59                     60
                      A                      A                      A
 Frequencies --   1260.5623              1293.6658              1300.5399
 Red. masses --      2.3913                 1.1845                 3.6357
 Frc consts  --      2.2387                 1.1679                 3.6231
 IR Inten    --    460.3454                 1.2091               712.9545

                     61                     62                     63
                      A                      A                      A
 Frequencies --   1323.8178              1339.3883              1348.6847
 Red. masses --      1.7037                 1.0675                 1.4306
 Frc consts  --      1.7591                 1.1283                 1.5331
 IR Inten    --     20.4420                 1.2584                18.1677

                     64                     65                     66
                      A                      A                      A
 Frequencies --   1355.8650              1431.7796              1444.2726
 Red. masses --      3.0121                 1.2780                 1.5230
 Frc consts  --      3.2625                 1.5435                 1.8717
 IR Inten    --     37.1064                 5.3308                36.9460

                     67                     68                     69
                      A                      A                      A
 Frequencies --   1469.9836              1503.2766              1518.1927
 Red. masses --      2.6842                 1.0648                 3.4729
 Frc consts  --      3.4174                 1.4177                 4.7163
 IR Inten    --    166.1399                 0.9530               202.9398

                     70                     71                     72
                      A                      A                      A
 Frequencies --   1518.4250              1520.8144              1534.3483
 Red. masses --      1.0402                 1.0917                 1.0947
 Frc consts  --      1.4131                 1.4877                 1.5185
 IR Inten    --     12.6807                 4.0358                29.7313

                     73                     74                     75
                      A                      A                      A
 Frequencies --   1597.1606              1660.6128              1678.6555
 Red. masses --      2.2435                 4.5150                 6.9065
 Frc consts  --      3.3718                 7.3358                11.4666
 IR Inten    --    617.5407               149.4388               223.8638

                     76                     77                     78
                      A                      A                      A
 Frequencies --   1839.7761              3071.2145              3080.1754
 Red. masses --     10.2841                 1.0378                 1.0600
 Frc consts  --     20.5091                 5.7674                 5.9250
 IR Inten    --    372.5417                21.4999                12.2611

                     79                     80                     81
                      A                      A                      A
 Frequencies --   3094.1927              3113.8674              3136.5392
 Red. masses --      1.0574                 1.1043                 1.1055
 Frc consts  --      5.9648                 6.3087                 6.4076
 IR Inten    --     33.3201                 0.3001                 7.4183

                     82                     83                     84
                      A                      A                      A
 Frequencies --   3150.1444              3150.9460              3227.1812
 Red. masses --      1.1018                 1.1084                 1.0925
 Frc consts  --      6.4420                 6.4836                 6.7038
 IR Inten    --     28.5981                60.6800                 1.1520

                     85                     86                     87
                      A                      A                      A
 Frequencies --   3265.4705              3286.8459              3649.3461
 Red. masses --      1.0938                 1.0924                 1.0775
 Frc consts  --      6.8718                 6.9536                 8.4549
 IR Inten    --     12.7333                34.4911                75.6765

 - Thermochemistry -
 -------------------
 Temperature   298.150 Kelvin.  Pressure   1.00000 Atm.
 Atom     1 has atomic number  6 and mass  12.00000

 Molecular mass:   339.01192 amu.
 Principal axes and moments of inertia in atomic units:
                           1         2         3
     Eigenvalues --  4748.74279********************
           X            0.90180   0.42990   0.04407
           Y           -0.42906   0.90286  -0.02753
           Z           -0.05162   0.00592   0.99865
 This molecule is an asymmetric top.
 Rotational symmetry number  1.
 Warning -- assumption of classical behavior for rotation
           may cause significant error
 Rotational temperatures (Kelvin)      0.01824     0.00647     0.00498
 Rotational constants (GHZ):           0.38005     0.13478     0.10373
 Zero-point vibrational energy     570580.1 (Joules/Mol)
                                  136.37192 (Kcal/Mol)
 Warning -- explicit consideration of  33 degrees of freedom as
           vibrations may cause significant error
 Vibrational temperatures:      5.46    37.24    55.44    72.18   102.80
          (Kelvin)            111.00   150.36   159.25   218.02   241.23
                              278.70   278.95   336.93   340.36   363.22
                              391.74   396.09   455.07   486.74   515.09
                              559.27   562.53   647.43   651.71   656.53
                              719.70   770.27   785.78   795.69   820.96
                              837.98   855.90   881.66   930.24   953.85
                              993.45  1075.21  1101.21  1138.05  1153.83
                             1221.01  1226.87  1249.60  1257.10  1292.52
                             1303.22  1315.32  1337.33  1396.80  1457.82
                             1478.59  1549.90  1631.99  1670.60  1681.99
                             1691.54  1719.30  1813.67  1861.30  1871.19
                             1904.68  1927.08  1940.46  1950.79  2060.01
                             2077.99  2114.98  2162.88  2184.34  2184.67
                             2188.11  2207.59  2297.96  2389.25  2415.21
                             2647.03  4418.79  4431.69  4451.85  4480.16
                             4512.78  4532.36  4533.51  4643.19  4698.28
                             4729.04  5250.60

 Zero-point correction=                           0.217322 (Hartree/Particle)
 Thermal correction to Energy=                    0.237034
 Thermal correction to Enthalpy=                  0.237978
 Thermal correction to Gibbs Free Energy=         0.164850
 Sum of electronic and zero-point Energies=          -1950.086149
 Sum of electronic and thermal Energies=             -1950.066437
 Sum of electronic and thermal Enthalpies=           -1950.065493
 Sum of electronic and thermal Free Energies=        -1950.138621

                     E (Thermal)             CV                S
                      KCal/Mol        Cal/Mol-Kelvin    Cal/Mol-Kelvin
 Total                  148.741             72.655            153.911
 Electronic               0.000              0.000              0.000
 Translational            0.889              2.981             43.357
 Rotational               0.889              2.981             35.358
 Vibrational            146.964             66.694             75.197
 Vibration     1          0.593              1.987              9.936
 Vibration     2          0.593              1.985              6.122
 Vibration     3          0.594              1.981              5.333
 Vibration     4          0.595              1.978              4.811
 Vibration     5          0.598              1.968              4.113
 Vibration     6          0.599              1.964              3.962
 Vibration     7          0.605              1.946              3.369
 Vibration     8          0.607              1.941              3.257
 Vibration     9          0.619              1.901              2.653
 Vibration    10          0.624              1.882              2.462
 Vibration    11          0.635              1.849              2.192
 Vibration    12          0.635              1.848              2.190
 Vibration    13          0.654              1.789              1.847
 Vibration    14          0.655              1.785              1.829
 Vibration    15          0.664              1.759              1.713
 Vibration    16          0.675              1.724              1.582
 Vibration    17          0.677              1.719              1.563
 Vibration    18          0.703              1.643              1.329
 Vibration    19          0.719              1.599              1.220
 Vibration    20          0.733              1.559              1.131
 Vibration    21          0.757              1.494              1.005
 Vibration    22          0.759              1.489              0.996
 Vibration    23          0.809              1.361              0.796
 Vibration    24          0.812              1.354              0.787
 Vibration    25          0.815              1.347              0.777
 Vibration    26          0.856              1.250              0.658
 Vibration    27          0.890              1.172              0.575
 Vibration    28          0.901              1.148              0.552
 Vibration    29          0.908              1.133              0.538
 Vibration    30          0.927              1.095              0.503
 Vibration    31          0.939              1.069              0.481
 Vibration    32          0.953              1.043              0.459
 Vibration    33          0.972              1.005              0.428

 Optimization completed.
    -- Stationary point found.
 Normal termination of Gaussian 16 at Sat Sep  5 02:50:14 2020.
