 Gaussian 09, Revision E.01,

 ----------------------------------------------------------------------
 # M062X/6-311+G* SCF=Tight INT(grid=ultrafine) OPT=CalcFC IOP(2/17=4)
 EmpiricalDispersion=GD3 maxdisk=3221225472
 ----------------------------------------------------------------------

 -----------------------------------
 CP22_carboxy.M062X_6-311pGd_opt_GD3
 -----------------------------------
 Symbolic Z-matrix:
 Charge = -1 Multiplicity = 1

 SCF Done:  E(RM062X) =  -2198.30037053     A.U. after   16 cycles
 SCF Done:  E(RM062X) =  -2198.30048820     A.U. after   12 cycles
 SCF Done:  E(RM062X) =  -2198.30048989     A.U. after   11 cycles
 SCF Done:  E(RM062X) =  -2198.30049004     A.U. after    9 cycles
 SCF Done:  E(RM062X) =  -2198.30049005     A.U. after    7 cycles
 Optimization completed.
    -- Stationary point found.
 Normal termination of Gaussian 09 at Wed Nov 20 13:06:56 2019.
 Gaussian 09:  ES64L-G09RevE.01 30-Nov-2015

 ----------------------------------------------------------------------
 # M062X/6-311+G* SCF=Tight INT(grid=ultrafine) EmpiricalDispersion=GD3
  Freq=Noraman maxdisk=3221225472 geom=check guess=read IOP(2/17=4)
 ----------------------------------------------------------------------

 -----------------------------------
 CP22_carboxy.M062X_6-311pGd_opt_GD3
 -----------------------------------
 Structure from the checkpoint file:  "CP22_carboxy.M062X_6-311pGd_opt_GD3.chk"
 Charge = -1 Multiplicity = 1

                         Standard orientation:
 ---------------------------------------------------------------------
 Center     Atomic      Atomic             Coordinates (Angstroms)
 Number     Number       Type             X           Y           Z
 ---------------------------------------------------------------------
      1          6           0       -0.189184    0.365481   -0.014082
      2          7           0        1.096818   -0.113703   -0.016149
      3          6           0        1.494954   -1.447425   -0.002860
      4          8           0        0.714932   -2.393516    0.012999
      5          7           0        2.838377   -1.585972   -0.012172
      6          6           0        3.434025   -2.902610    0.023696
      7          6           0        4.948739   -2.784557   -0.083051
      8          6           0        5.624007   -4.151204   -0.034637
      9          6           0       -1.342141   -0.442281   -0.001526
     10          6           0       -2.574823    0.184967   -0.002350
     11          6           0       -2.761045    1.558475   -0.015019
     12          6           0       -1.601140    2.323229   -0.026635
     13          6           0       -0.338637    1.767922   -0.026343
     14          1           0        1.838862    0.617028   -0.025987
     15          1           0        3.459143   -0.762454    0.007069
     16          1           0        3.037809   -3.511036   -0.797443
     17          1           0        3.157277   -3.420172    0.951269
     18          1           0        5.317323   -2.145059    0.724242
     19          1           0        5.201071   -2.264876   -1.012041
     20          1           0        5.401380   -4.668304    0.903165
     21          1           0        6.709779   -4.063421   -0.115640
     22          1           0        5.279789   -4.791287   -0.852202
     23          1           0       -1.239905   -1.516460    0.008248
     24         17           0       -1.761504    4.066381   -0.042261
     25          1           0        0.550620    2.390645   -0.035054
     26         16           0       -4.054643   -0.857169    0.014287
     27          1           0       -3.739250    2.016072   -0.015583
     28          9           0       -3.479722   -1.825124    1.170672
     29          9           0       -4.785627    0.051609    1.144356
     30          9           0       -3.482635   -1.858393   -1.114878
     31          9           0       -4.788047    0.018876   -1.139788
     32          9           0       -5.391039   -1.777038    0.029170
     33          8           0        2.862476    1.987304   -0.030598
     34          8           0        4.618609    0.604339    0.045978
     35          6           0        4.096106    1.739542    0.014345
     36          6           0        5.022366    2.963635    0.031768
     37          6           0        6.505878    2.625345    0.073379
     38          1           0        4.730605    3.573278    0.892691
     39          1           0        4.776667    3.564199   -0.849525
     40          1           0        6.742413    2.033129    0.958845
     41          1           0        7.121008    3.530312    0.085560
     42          1           0        6.789752    2.024849   -0.792465
 ---------------------------------------------------------------------

 SCF Done:  E(RM062X) =  -2198.30049005     A.U. after    2 cycles

 The electronic state is 1-A.
 Alpha  occ. eigenvalues -- -102.59420 -90.18889 -25.19474 -25.19470 -25.19450
 Alpha  occ. eigenvalues --  -25.19447 -25.19338 -19.47421 -19.45007 -19.44780
 Alpha  occ. eigenvalues --  -14.65932 -14.63899 -10.55771 -10.52843 -10.51473
 Alpha  occ. eigenvalues --  -10.51390 -10.51212 -10.47812 -10.46578 -10.46552
 Alpha  occ. eigenvalues --  -10.46289 -10.44484 -10.43959 -10.42134 -10.42029
 Alpha  occ. eigenvalues --   -9.73692  -8.51227  -7.46199  -7.45536  -7.45528
 Alpha  occ. eigenvalues --   -6.43644  -6.43633  -6.43176  -1.41100  -1.31155
 Alpha  occ. eigenvalues --   -1.31093  -1.28059  -1.26723  -1.06321  -1.04089
 Alpha  occ. eigenvalues --   -0.95261  -0.94256  -0.92249  -0.90637  -0.87837
 Alpha  occ. eigenvalues --   -0.83084  -0.79075  -0.76363  -0.75433  -0.75149
 Alpha  occ. eigenvalues --   -0.68771  -0.66534  -0.64866  -0.64654  -0.62474
 Alpha  occ. eigenvalues --   -0.61828  -0.58709  -0.58243  -0.56036  -0.55055
 Alpha  occ. eigenvalues --   -0.53304  -0.53285  -0.51392  -0.50599  -0.49314
 Alpha  occ. eigenvalues --   -0.49210  -0.46745  -0.46495  -0.46357  -0.46154
 Alpha  occ. eigenvalues --   -0.46116  -0.45753  -0.45019  -0.43653  -0.43582
 Alpha  occ. eigenvalues --   -0.43209  -0.42638  -0.42073  -0.41805  -0.41604
 Alpha  occ. eigenvalues --   -0.41566  -0.40210  -0.39408  -0.39147  -0.38621
 Alpha  occ. eigenvalues --   -0.37281  -0.36552  -0.36504  -0.34797  -0.34274
 Alpha  occ. eigenvalues --   -0.33855  -0.33241  -0.32700  -0.31426  -0.30914
 Alpha  occ. eigenvalues --   -0.30432  -0.29873  -0.29257  -0.28370  -0.23760
 Alpha  occ. eigenvalues --   -0.22647  -0.20983  -0.20525  -0.19994  -0.19838
 Alpha  occ. eigenvalues --   -0.16927
 Alpha virt. eigenvalues --    0.06626   0.08227   0.09146   0.09585   0.10227
 Alpha virt. eigenvalues --    0.10366   0.11439   0.11788   0.11887   0.12063
 Alpha virt. eigenvalues --    0.12408   0.12628   0.12816   0.13089   0.13540

 Mulliken charges:
               1
     1  C   -1.208273
     2  N   -0.431104
     3  C    0.037784
     4  O   -0.379485
     5  N   -0.409932
     6  C   -0.474949
     7  C   -0.067579
     8  C   -1.153176
     9  C   -0.187326
    10  C   -0.226298
    11  C   -0.518231
    12  C    0.785233
    13  C   -0.731597
    14  H    0.469252
    15  H    0.471555
    16  H    0.237026
    17  H    0.244308
    18  H    0.274259
    19  H    0.273208
    20  H    0.246049
    21  H    0.254644
    22  H    0.245295
    23  H    0.350776
    24  Cl   0.379364
    25  H    0.374557
    26  S    0.498900
    27  H    0.298044
    28  F    0.050683
    29  F    0.047525
    30  F    0.049542
    31  F    0.048546
    32  F   -0.008723
    33  O   -0.471937
    34  O   -0.415274
    35  C    0.034671
    36  C   -0.206139
    37  C   -1.017439
    38  H    0.244967
    39  H    0.245230
    40  H    0.257337
    41  H    0.231214
    42  H    0.257492
 Sum of Mulliken charges =  -1.00000

 Dipole moment (field-independent basis, Debye):
    X=             -2.9111    Y=             -0.0872    Z=             -0.0297  Tot=              2.9126
 Quadrupole moment (field-independent basis, Debye-Ang):
   XX=           -235.1684   YY=           -190.9718   ZZ=           -167.4787
   XY=            -13.1641   XZ=             -0.1476   YZ=              0.2625

  Exact polarizability: 290.877 -20.090 258.003   0.293  -1.041 141.050
 Approx polarizability: 295.814 -18.246 296.066   0.284  -1.467 189.758

                      1                      2                      3
                      A                      A                      A
 Frequencies --     11.7817                15.8043                26.2581
 Red. masses --      5.2745                 7.0372                 2.8854
 Frc consts  --      0.0004                 0.0010                 0.0012
 IR Inten    --      0.0026                 0.4986                 0.4960

                      4                      5                      6
                      A                      A                      A
 Frequencies --     32.2634                39.5927                41.1731
 Red. masses --      4.3034                 1.8699                 8.1544
 Frc consts  --      0.0026                 0.0017                 0.0081
 IR Inten    --      0.2705                 0.2422                 0.2647

                      7                      8                      9
                      A                      A                      A
 Frequencies --     47.7654                53.9053                60.8380
 Red. masses --      6.8478                 4.6579                 3.6574
 Frc consts  --      0.0092                 0.0080                 0.0080
 IR Inten    --      1.0206                 2.9376                 1.0712

                     10                     11                     12
                      A                      A                      A
 Frequencies --     69.5294                78.0736                98.9518
 Red. masses --      5.5065                 5.2590                 8.9400
 Frc consts  --      0.0157                 0.0189                 0.0516
 IR Inten    --      0.0153                 6.4424                 3.2901

                     13                     14                     15
                      A                      A                      A
 Frequencies --    104.4399               116.3640               146.0608
 Red. masses --      7.9544                 5.3108                14.5286
 Frc consts  --      0.0511                 0.0424                 0.1826
 IR Inten    --      4.0930                 2.0863                 5.3519

                     16                     17                     18
                      A                      A                      A
 Frequencies --    166.5126               183.5529               194.1689
 Red. masses --      3.1821                 4.8560                10.2910
 Frc consts  --      0.0520                 0.0964                 0.2286
 IR Inten    --      5.9341                19.2078                 2.7078

                     19                     20                     21
                      A                      A                      A
 Frequencies --    198.7436               213.4181               236.1617
 Red. masses --      6.0210                 1.1349                 1.1928
 Frc consts  --      0.1401                 0.0305                 0.0392
 IR Inten    --      0.4719                 0.5028                 0.0834

                     22                     23                     24
                      A                      A                      A
 Frequencies --    241.7681               244.5795               275.6135
 Red. masses --      3.9918                 6.4451                 7.8650
 Frc consts  --      0.1375                 0.2272                 0.3520
 IR Inten    --      0.3795                 9.9005                 0.0005

                     25                     26                     27
                      A                      A                      A
 Frequencies --    278.5980               298.3750               317.6034
 Red. masses --      8.1846                 4.0132                 6.6910
 Frc consts  --      0.3743                 0.2105                 0.3977
 IR Inten    --     10.3773                15.0498                 8.0456

                     28                     29                     30
                      A                      A                      A
 Frequencies --    337.6981               348.8470               386.2317
 Red. masses --     18.8831                 5.1219                15.4132
 Frc consts  --      1.2688                 0.3672                 1.3547
 IR Inten    --      0.0023                16.5367                 4.6292

                     31                     32                     33
                      A                      A                      A
 Frequencies --    391.3433               447.4506               450.1054
 Red. masses --     11.8162                 8.9029                14.6066
 Frc consts  --      1.0662                 1.0502                 1.7435
 IR Inten    --      1.1307                 1.3137                 0.1106

                     34                     35                     36
                      A                      A                      A
 Frequencies --    457.5382               499.0166               523.6282
 Red. masses --      4.8198                 6.1915                 5.7555
 Frc consts  --      0.5945                 0.9084                 0.9298
 IR Inten    --      4.8892                 4.2553                39.1683

                     37                     38                     39
                      A                      A                      A
 Frequencies --    536.5700               551.8015               565.8924
 Red. masses --     14.6398                13.6580                 5.9186
 Frc consts  --      2.4833                 2.4502                 1.1167
 IR Inten    --     10.1267                 6.4552                 1.1047

                     40                     41                     42
                      A                      A                      A
 Frequencies --    578.3286               584.6768               589.7237
 Red. masses --     18.4601                 1.9366                18.5365
 Frc consts  --      3.6377                 0.3901                 3.7982
 IR Inten    --     72.9438                 0.4935                 0.5660

                     43                     44                     45
                      A                      A                      A
 Frequencies --    620.9239               640.8409               655.6571
 Red. masses --      5.6302                13.5888                 6.2735
 Frc consts  --      1.2789                 3.2880                 1.5890
 IR Inten    --      2.2204                83.5809                16.8374

                     46                     47                     48
                      A                      A                      A
 Frequencies --    663.6779               697.5491               738.3128
 Red. masses --      5.1346                 2.7188                11.4059
 Frc consts  --      1.3325                 0.7794                 3.6632
 IR Inten    --     17.8887                 6.9741               207.3201

                     49                     50                     51
                      A                      A                      A
 Frequencies --    749.6058               775.8587               796.3526
 Red. masses --      1.1046                 1.9471                 7.2968
 Frc consts  --      0.3657                 0.6906                 2.7264
 IR Inten    --      4.3820                34.5042                33.5721

                     52                     53                     54
                      A                      A                      A
 Frequencies --    811.6394               824.6256               832.1623
 Red. masses --      1.8480                 1.4554                 1.4788
 Frc consts  --      0.7172                 0.5831                 0.6034
 IR Inten    --      3.5205                 8.3256                 0.0047

                     55                     56                     57
                      A                      A                      A
 Frequencies --    855.7716               858.2510               868.7584
 Red. masses --     16.9636                12.6729                17.3146
 Frc consts  --      7.3195                 5.4999                 7.6995
 IR Inten    --    379.5756               378.1416               185.9222

                     58                     59                     60
                      A                      A                      A
 Frequencies --    890.1257               903.8483               912.7269
 Red. masses --      4.1029                 1.1649                 1.4534
 Frc consts  --      1.9153                 0.5607                 0.7134
 IR Inten    --     54.1840                 2.5894                48.5336

                     61                     62                     63
                      A                      A                      A
 Frequencies --    920.9469               940.5284               969.6800
 Red. masses --      1.8490                 1.2358                 5.4444
 Frc consts  --      0.9240                 0.6441                 3.0162
 IR Inten    --     40.7859                13.9722                76.9706

                     64                     65                     66
                      A                      A                      A
 Frequencies --    982.8514              1004.7338              1020.4709
 Red. masses --      1.1561                 5.7708                 1.6921
 Frc consts  --      0.6580                 3.4323                 1.0382
 IR Inten    --     93.3693                59.1443                 2.6459

                     67                     68                     69
                      A                      A                      A
 Frequencies --   1052.6826              1083.3892              1109.4323
 Red. masses --      3.8442                 2.8170                 1.7993
 Frc consts  --      2.5098                 1.9481                 1.3048
 IR Inten    --     22.5213                14.7307                 1.1056

                     70                     71                     72
                      A                      A                      A
 Frequencies --   1110.6744              1140.2718              1155.1994
 Red. masses --      2.3466                 1.5446                 2.4874
 Frc consts  --      1.7055                 1.1833                 1.9557
 IR Inten    --      4.0627                14.1074                41.8460

                     73                     74                     75
                      A                      A                      A
 Frequencies --   1165.4310              1182.8625              1195.9993
 Red. masses --      1.7637                 1.6319                 4.2755
 Frc consts  --      1.4114                 1.3453                 3.6033
 IR Inten    --     35.0639                 1.1766                 6.2012

                     76                     77                     78
                      A                      A                      A
 Frequencies --   1282.0982              1282.7128              1290.4722
 Red. masses --      1.1838                 1.8653                 1.1843
 Frc consts  --      1.1465                 1.8082                 1.1620
 IR Inten    --      0.2480               105.1308                 0.4610

                     79                     80                     81
                      A                      A                      A
 Frequencies --   1314.6260              1324.0462              1328.9643
 Red. masses --      1.5698                 2.0366                 1.6883
 Frc consts  --      1.5985                 2.1036                 1.7569
 IR Inten    --    237.8023                55.5784                62.6582

                     82                     83                     84
                      A                      A                      A
 Frequencies --   1337.4457              1364.4080              1377.1562
 Red. masses --      1.0948                 1.9697                 3.5272
 Frc consts  --      1.1538                 2.1605                 3.9413
 IR Inten    --     12.4169               234.2033               209.5419

                     85                     86                     87
                      A                      A                      A
 Frequencies --   1418.3912              1422.5318              1432.8132
 Red. masses --      1.3100                 1.2778                 1.6776
 Frc consts  --      1.5528                 1.5235                 2.0291
 IR Inten    --     17.1706                 3.7168                 2.9471

                     88                     89                     90
                      A                      A                      A
 Frequencies --   1462.6861              1465.2110              1484.8467
 Red. masses --      4.1848                 3.2660                 1.1862
 Frc consts  --      5.2750                 4.1311                 1.5409
 IR Inten    --    379.4511                55.0103                24.2858

                     91                     92                     93
                      A                      A                      A
 Frequencies --   1505.3987              1509.5226              1520.5277
 Red. masses --      1.0691                 1.0374                 1.0898
 Frc consts  --      1.4275                 1.3927                 1.4845
 IR Inten    --     12.0720                 6.4119                52.4370

                     94                     95                     96
                      A                      A                      A
 Frequencies --   1521.4171              1525.0800              1527.9007
 Red. masses --      1.0381                 1.0815                 3.5910
 Frc consts  --      1.4158                 1.4820                 4.9392
 IR Inten    --      8.1391                11.9152               375.0104

                     97                     98                     99
                      A                      A                      A
 Frequencies --   1542.1846              1607.7591              1634.5443
 Red. masses --      1.0890                 3.7524                 2.8612
 Frc consts  --      1.5260                 5.7147                 4.5040
 IR Inten    --      4.4478                59.0416                 2.0838

                    100                    101                    102
                      A                      A                      A
 Frequencies --   1664.0583              1687.2468              1714.0839
 Red. masses --      5.8616                 2.3862                 2.9025
 Frc consts  --      9.5632                 4.0023                 5.0244
 IR Inten    --    831.5579               313.1288               636.7729

                    103                    104                    105
                      A                      A                      A
 Frequencies --   1794.2705              3015.0471              3034.8250
 Red. masses --      2.6415                 1.0982                 1.0630
 Frc consts  --      5.0104                 5.8817                 5.7683
 IR Inten    --    387.7230              1231.4525                77.2443

                    106                    107                    108
                      A                      A                      A
 Frequencies --   3056.8468              3061.5671              3064.8351
 Red. masses --      1.0369                 1.0428                 1.0996
 Frc consts  --      5.7087                 5.7586                 6.0858
 IR Inten    --     48.8739                43.7679                28.7293

                    109                    110                    111
                      A                      A                      A
 Frequencies --   3072.7432              3078.4643              3103.1547
 Red. masses --      1.0599                 1.0614                 1.1013
 Frc consts  --      5.8960                 5.9264                 6.2481
 IR Inten    --     22.3870                21.1104                10.9494

                    112                    113                    114
                      A                      A                      A
 Frequencies --   3105.7312              3130.0889              3130.6073
 Red. masses --      1.1029                 1.1032                 1.1016
 Frc consts  --      6.2677                 6.3683                 6.3613
 IR Inten    --      0.1249                56.3339                46.5675

                    115                    116                    117
                      A                      A                      A
 Frequencies --   3131.2856              3150.9131              3211.8844
 Red. masses --      1.0965                 1.1024                 1.0942
 Frc consts  --      6.3346                 6.4483                 6.6509
 IR Inten    --     43.5447                36.4039                 6.3826

                    118                    119                    120
                      A                      A                      A
 Frequencies --   3232.8007              3269.8031              3282.0789
 Red. masses --      1.0903                 1.0931                 1.0919
 Frc consts  --      6.7133                 6.8855                 6.9299
 IR Inten    --   1378.2608                 4.1949                36.1537

 - Thermochemistry -
 -------------------
 Temperature   298.150 Kelvin.  Pressure   1.00000 Atm.
 Atom     1 has atomic number  6 and mass  12.00000

 Molecular mass:   411.05686 amu.
 Principal axes and moments of inertia in atomic units:
                           1         2         3
     Eigenvalues --  7266.31040********************
           X            0.99988  -0.01575   0.00016
           Y            0.01575   0.99988   0.00083
           Z           -0.00017  -0.00082   1.00000
 This molecule is an asymmetric top.
 Rotational symmetry number  1.
 Warning -- assumption of classical behavior for rotation
           may cause significant error
 Rotational temperatures (Kelvin)      0.01192     0.00426     0.00323
 Rotational constants (GHZ):           0.24837     0.08875     0.06726
 Zero-point vibrational energy     811353.2 (Joules/Mol)
                                  193.91808 (Kcal/Mol)
 Warning -- explicit consideration of  42 degrees of freedom as
           vibrations may cause significant error
 Vibrational temperatures:     16.95    22.74    37.78    46.42    56.97
          (Kelvin)             59.24    68.72    77.56    87.53   100.04
                              112.33   142.37   150.27   167.42   210.15
                              239.57   264.09   279.37   285.95   307.06
                              339.78   347.85   351.89   396.55   400.84
                              429.29   456.96   485.87   501.91   555.70
                              563.06   643.78   647.60   658.29   717.97
                              753.38   772.00   793.92   814.19   832.08
                              841.22   848.48   893.37   922.03   943.34
                              954.88  1003.62  1062.27  1078.51  1116.29
                             1145.77  1167.77  1186.45  1197.29  1231.26
                             1234.83  1249.95  1280.69  1300.43  1313.21
                             1325.04  1353.21  1395.15  1414.10  1445.59
                             1468.23  1514.57  1558.75  1596.22  1598.01
                             1640.59  1662.07  1676.79  1701.87  1720.77
                             1844.65  1845.54  1856.70  1891.45  1905.00
                             1912.08  1924.28  1963.08  1981.42  2040.75
                             2046.70  2061.50  2104.48  2108.11  2136.36
                             2165.93  2171.86  2187.70  2188.98  2194.25
                             2198.31  2218.86  2313.20  2351.74  2394.21
                             2427.57  2466.18  2581.55  4337.97  4366.43
                             4398.12  4404.91  4409.61  4420.99  4429.22
                             4464.74  4468.45  4503.49  4504.24  4505.22
                             4533.46  4621.18  4651.27  4704.51  4722.17

 Zero-point correction=                           0.309028 (Hartree/Particle)
 Thermal correction to Energy=                    0.335993
 Thermal correction to Enthalpy=                  0.336937
 Thermal correction to Gibbs Free Energy=         0.245854
 Sum of electronic and zero-point Energies=          -2197.991462
 Sum of electronic and thermal Energies=             -2197.964497
 Sum of electronic and thermal Enthalpies=           -2197.963553
 Sum of electronic and thermal Free Energies=        -2198.054636

                     E (Thermal)             CV                S
                      KCal/Mol        Cal/Mol-Kelvin    Cal/Mol-Kelvin
 Total                  210.839             95.784            191.701
 Electronic               0.000              0.000              0.000
 Translational            0.889              2.981             43.932
 Rotational               0.889              2.981             36.626
 Vibrational            209.061             89.822            111.143
 Vibration     1          0.593              1.987              7.685
 Vibration     2          0.593              1.986              7.102
 Vibration     3          0.593              1.985              6.094
 Vibration     4          0.594              1.983              5.685
 Vibration     5          0.594              1.981              5.279
 Vibration     6          0.594              1.981              5.202
 Vibration     7          0.595              1.978              4.908
 Vibration     8          0.596              1.976              4.669
 Vibration     9          0.597              1.973              4.430
 Vibration    10          0.598              1.969              4.167
 Vibration    11          0.599              1.964              3.939
 Vibration    12          0.604              1.950              3.475
 Vibration    13          0.605              1.946              3.370
 Vibration    14          0.608              1.936              3.160
 Vibration    15          0.617              1.907              2.723
 Vibration    16          0.624              1.884              2.474
 Vibration    17          0.631              1.862              2.292
 Vibration    18          0.635              1.848              2.188
 Vibration    19          0.637              1.842              2.145
 Vibration    20          0.644              1.820              2.014
 Vibration    21          0.655              1.785              1.832
 Vibration    22          0.658              1.776              1.790
 Vibration    23          0.660              1.772              1.769
 Vibration    24          0.677              1.718              1.561
 Vibration    25          0.679              1.713              1.542
 Vibration    26          0.691              1.677              1.426
 Vibration    27          0.704              1.640              1.322
 Vibration    28          0.718              1.600              1.223
 Vibration    29          0.726              1.578              1.171
 Vibration    30          0.755              1.500              1.015
 Vibration    31          0.759              1.489              0.995
 Vibration    32          0.807              1.367              0.804
 Vibration    33          0.809              1.361              0.795
 Vibration    34          0.816              1.344              0.773
 Vibration    35          0.854              1.252              0.661
 Vibration    36          0.879              1.198              0.602
 Vibration    37          0.892              1.169              0.573
 Vibration    38          0.907              1.136              0.540
 Vibration    39          0.922              1.105              0.512
 Vibration    40          0.935              1.078              0.488
 Vibration    41          0.942              1.065              0.477
 Vibration    42          0.947              1.054              0.468

 Optimization completed.
    -- Stationary point found.
 Normal termination of Gaussian 09 at Wed Nov 20 15:05:01 2019.
