 Gaussian 16, Revision C.01,
 Gaussian 16:  ES64L-G16RevC.01  3-Jul-2019

 ----------------------------------------------------------------------
 # DSDPBEP86/AUG-cc-PVTZ SCF=Tight INT(grid=ultrafine) MaxDisk=1400000M
 B
 ----------------------------------------------------------------------

 ----------------------------------
 CP22_carboxy.DSDPBEP86_AUG-cc-PVTZ
 ----------------------------------
 Symbolic Z-matrix:
 Charge = -1 Multiplicity = 1

                         Standard orientation:
 ---------------------------------------------------------------------
 Center     Atomic      Atomic             Coordinates (Angstroms)
 Number     Number       Type             X           Y           Z
 ---------------------------------------------------------------------
      1          6           0       -0.189184    0.365481   -0.014082
      2          7           0        1.096818   -0.113703   -0.016149
      3          6           0        1.494954   -1.447425   -0.002860
      4          8           0        0.714932   -2.393516    0.012999
      5          7           0        2.838377   -1.585972   -0.012172
      6          6           0        3.434025   -2.902610    0.023696
      7          6           0        4.948739   -2.784557   -0.083051
      8          6           0        5.624007   -4.151204   -0.034637
      9          6           0       -1.342141   -0.442281   -0.001526
     10          6           0       -2.574823    0.184967   -0.002350
     11          6           0       -2.761045    1.558475   -0.015019
     12          6           0       -1.601140    2.323229   -0.026635
     13          6           0       -0.338637    1.767922   -0.026343
     14          1           0        1.838862    0.617028   -0.025987
     15          1           0        3.459143   -0.762454    0.007069
     16          1           0        3.037809   -3.511036   -0.797443
     17          1           0        3.157277   -3.420172    0.951269
     18          1           0        5.317323   -2.145059    0.724242
     19          1           0        5.201071   -2.264876   -1.012041
     20          1           0        5.401380   -4.668304    0.903165
     21          1           0        6.709779   -4.063421   -0.115640
     22          1           0        5.279789   -4.791287   -0.852202
     23          1           0       -1.239905   -1.516460    0.008248
     24         17           0       -1.761504    4.066381   -0.042261
     25          1           0        0.550620    2.390645   -0.035054
     26         16           0       -4.054643   -0.857169    0.014287
     27          1           0       -3.739250    2.016072   -0.015583
     28          9           0       -3.479722   -1.825124    1.170672
     29          9           0       -4.785627    0.051609    1.144356
     30          9           0       -3.482635   -1.858393   -1.114878
     31          9           0       -4.788047    0.018876   -1.139788
     32          9           0       -5.391039   -1.777038    0.029170
     33          8           0        2.862476    1.987304   -0.030598
     34          8           0        4.618609    0.604339    0.045978
     35          6           0        4.096106    1.739542    0.014345
     36          6           0        5.022366    2.963635    0.031768
     37          6           0        6.505878    2.625345    0.073379
     38          1           0        4.730605    3.573278    0.892691
     39          1           0        4.776667    3.564199   -0.849525
     40          1           0        6.742413    2.033129    0.958845
     41          1           0        7.121008    3.530312    0.085560
     42          1           0        6.789752    2.024849   -0.792465
 ---------------------------------------------------------------------

 SCF Done:  E(RDSDPBEP86) =  -2193.81151490     A.U. after   14 cycles
 E2(DSDPBEP86) =    -0.2511932599D+01 E(DSDPBEP86) =    -0.21963234475007D+04

 The electronic state is 1-A.
 Alpha  occ. eigenvalues -- -103.48677 -91.07479 -25.62270 -25.62266 -25.62234
 Alpha  occ. eigenvalues --  -25.62232 -25.62091 -19.84817 -19.82479 -19.82231
 Alpha  occ. eigenvalues --  -14.98621 -14.96576 -10.83779 -10.80598 -10.79246
 Alpha  occ. eigenvalues --  -10.79032 -10.78883 -10.75165 -10.74014 -10.73868
 Alpha  occ. eigenvalues --  -10.73701 -10.72104 -10.71443 -10.69956 -10.69835
 Alpha  occ. eigenvalues --  -10.06175  -8.82024  -7.63846  -7.63391  -7.63380
 Alpha  occ. eigenvalues --   -6.61116  -6.61103  -6.60684  -1.50188  -1.40771
 Alpha  occ. eigenvalues --   -1.40722  -1.37653  -1.36482  -1.15181  -1.13009
 Alpha  occ. eigenvalues --   -1.03524  -1.02829  -1.00127  -0.98316  -0.94475
 Alpha  occ. eigenvalues --   -0.88937  -0.85869  -0.82623  -0.82544  -0.81604
 Alpha  occ. eigenvalues --   -0.74576  -0.70917  -0.68724  -0.68181  -0.67653
 Alpha  occ. eigenvalues --   -0.67341  -0.63530  -0.62555  -0.60391  -0.59233
 Alpha  occ. eigenvalues --   -0.57469  -0.57410  -0.55288  -0.54026  -0.53128
 Alpha  occ. eigenvalues --   -0.52528  -0.50904  -0.50666  -0.50339  -0.50173
 Alpha  occ. eigenvalues --   -0.49677  -0.49025  -0.48760  -0.47358  -0.46882
 Alpha  occ. eigenvalues --   -0.46711  -0.46413  -0.45228  -0.45165  -0.44689
 Alpha  occ. eigenvalues --   -0.44472  -0.43562  -0.42412  -0.41968  -0.41498
 Alpha  occ. eigenvalues --   -0.40318  -0.39569  -0.38997  -0.37322  -0.37287
 Alpha  occ. eigenvalues --   -0.36619  -0.35957  -0.34705  -0.34336  -0.33453
 Alpha  occ. eigenvalues --   -0.32863  -0.32184  -0.31935  -0.29876  -0.26518
 Alpha  occ. eigenvalues --   -0.23187  -0.23086  -0.22786  -0.22522  -0.22388
 Alpha  occ. eigenvalues --   -0.17601
 Alpha virt. eigenvalues --    0.08039   0.08772   0.09466   0.10023   0.10136
 Alpha virt. eigenvalues --    0.10729   0.10996   0.11088   0.11562   0.12599
 Alpha virt. eigenvalues --    0.12655   0.12892   0.12921   0.13213   0.13378

 Mulliken charges:
               1
     1  C    0.359660
     2  N   -0.426262
     3  C   -0.039510
     4  O   -0.990880
     5  N   -0.202657
     6  C   -0.529177
     7  C   -0.357807
     8  C   -1.068907
     9  C   -0.964474
    10  C    1.149604
    11  C   -0.800590
    12  C    0.281600
    13  C   -0.968619
    14  H    0.852507
    15  H    0.920289
    16  H    0.304998
    17  H    0.257679
    18  H    0.259502
    19  H    0.236521
    20  H    0.274261
    21  H    0.270709
    22  H    0.271620
    23  H    0.502509
    24  Cl  -0.467208
    25  H    0.756465
    26  S    2.693499
    27  H    0.476872
    28  F   -0.590784
    29  F   -0.598462
    30  F   -0.591117
    31  F   -0.598595
    32  F   -0.541506
    33  O   -0.959836
    34  O   -0.807896
    35  C    0.695129
    36  C   -0.306461
    37  C   -0.926624
    38  H    0.197501
    39  H    0.197897
    40  H    0.250620
    41  H    0.274266
    42  H    0.253665
 Sum of Mulliken charges =  -1.00000

 Dipole moment (field-independent basis, Debye):
    X=             -3.3915    Y=             -0.1353    Z=             -0.0272  Tot=              3.3943
 Quadrupole moment (field-independent basis, Debye-Ang):
   XX=           -233.7521   YY=           -191.3654   ZZ=           -165.3517
   XY=            -11.5004   XZ=             -0.1598   YZ=              0.2687

 Normal termination of Gaussian 16 at Tue Sep 22 00:20:32 2020.
