 Gaussian 16, Revision C.01,
 Gaussian 16:  ES64L-G16RevC.01  3-Jul-2019

 ----------------------------------------------------------------------
 # DSDPBEP86/AUG-cc-PVTZ SCF=Tight INT(grid=ultrafine) MaxDisk=1400000M
 B
 ----------------------------------------------------------------------

 -------------------------------------
 CP22_c2_carboxy.DSDPBEP86_AUG-cc-PVTZ
 -------------------------------------
 Symbolic Z-matrix:
 Charge = -1 Multiplicity = 1

                         Standard orientation:
 ---------------------------------------------------------------------
 Center     Atomic      Atomic             Coordinates (Angstroms)
 Number     Number       Type             X           Y           Z
 ---------------------------------------------------------------------
      1          6           0        0.171484   -1.070254   -0.001201
      2          7           0       -1.169259   -0.777771    0.015023
      3          6           0       -2.225952   -1.682298   -0.019043
      4          8           0       -2.083223   -2.899663   -0.065747
      5          7           0       -3.429606   -1.068086    0.012459
      6          6           0       -4.648184   -1.839285   -0.082849
      7          6           0       -5.843454   -0.958817    0.259456
      8          6           0       -7.159482   -1.717143    0.120893
      9          6           0        1.053556    0.033769    0.019660
     10          6           0        2.410037   -0.201413    0.007799
     11          6           0        2.978850   -1.470483   -0.024198
     12          6           0        2.084943   -2.527494   -0.043999
     13          6           0        0.708467   -2.368548   -0.033427
     14          1           0       -1.398097    0.239111    0.042764
     15          1           0       -3.498943   -0.039676   -0.031521
     16          1           0       -4.588644   -2.693099    0.599360
     17          1           0       -4.765320   -2.256822   -1.092679
     18          1           0       -5.837850   -0.076338   -0.386999
     19          1           0       -5.723680   -0.583436    1.280121
     20          1           0       -7.304847   -2.069971   -0.904148
     21          1           0       -8.013449   -1.086533    0.378304
     22          1           0       -7.182424   -2.592961    0.776114
     23          1           0        0.636466    1.035668    0.043696
     24         17           0        2.735332   -4.154682   -0.081616
     25          1           0        0.048032   -3.221999   -0.049390
     26         16           0        3.528155    1.219565    0.037030
     27          1           0        4.046765   -1.630408   -0.032469
     28          9           0        2.702284    1.969616    1.200677
     29          9           0        4.488147    0.543151    1.159467
     30          9           0        2.694099    2.023977   -1.083614
     31          9           0        4.479732    0.597450   -1.123195
     32          9           0        4.547950    2.480016    0.063407
     33          8           0       -1.508808    1.932037    0.062244
     34          8           0       -3.729242    1.737364   -0.117141
     35          6           0       -2.673028    2.401566   -0.035918
     36          6           0       -2.775011    3.932513   -0.053862
     37          6           0       -4.196388    4.463474   -0.174719
     38          1           0       -2.147524    4.285765   -0.877930
     39          1           0       -2.291730    4.295748    0.858385
     40          1           0       -4.666588    4.104255   -1.091655
     41          1           0       -4.213665    5.557591   -0.180855
     42          1           0       -4.812322    4.111360    0.654439
 ---------------------------------------------------------------------

 SCF Done:  E(RDSDPBEP86) =  -2193.81142025     A.U. after   14 cycles
 E2(DSDPBEP86) =    -0.2511938999D+01 E(DSDPBEP86) =    -0.21963233592474D+04

 The electronic state is 1-A.
 Alpha  occ. eigenvalues -- -103.48669 -91.07390 -25.62159 -25.62156 -25.62110
 Alpha  occ. eigenvalues --  -25.62105 -25.61993 -19.84851 -19.82409 -19.82154
 Alpha  occ. eigenvalues --  -14.98577 -14.96575 -10.83815 -10.80571 -10.79169
 Alpha  occ. eigenvalues --  -10.79013 -10.78818 -10.75057 -10.74183 -10.74017
 Alpha  occ. eigenvalues --  -10.73380 -10.72119 -10.71425 -10.69799 -10.69703
 Alpha  occ. eigenvalues --  -10.06169  -8.81929  -7.63838  -7.63386  -7.63375
 Alpha  occ. eigenvalues --   -6.61023  -6.61010  -6.60595  -1.50109  -1.40671
 Alpha  occ. eigenvalues --   -1.40623  -1.37570  -1.36368  -1.15174  -1.12945
 Alpha  occ. eigenvalues --   -1.03503  -1.02761  -1.00118  -0.98282  -0.94410
 Alpha  occ. eigenvalues --   -0.88868  -0.85856  -0.82540  -0.82401  -0.81636
 Alpha  occ. eigenvalues --   -0.74599  -0.70965  -0.68532  -0.68072  -0.67560
 Alpha  occ. eigenvalues --   -0.66762  -0.64074  -0.63040  -0.59407  -0.59121
 Alpha  occ. eigenvalues --   -0.57732  -0.57364  -0.55267  -0.54043  -0.53125
 Alpha  occ. eigenvalues --   -0.52410  -0.50776  -0.50547  -0.50170  -0.50049
 Alpha  occ. eigenvalues --   -0.49602  -0.49070  -0.48578  -0.47261  -0.46947
 Alpha  occ. eigenvalues --   -0.46563  -0.46281  -0.45113  -0.45096  -0.44503
 Alpha  occ. eigenvalues --   -0.44367  -0.43649  -0.42460  -0.41962  -0.41516
 Alpha  occ. eigenvalues --   -0.40282  -0.39442  -0.38923  -0.37215  -0.37180
 Alpha  occ. eigenvalues --   -0.36602  -0.35955  -0.34850  -0.34226  -0.33543
 Alpha  occ. eigenvalues --   -0.32803  -0.32198  -0.31802  -0.29668  -0.26543
 Alpha  occ. eigenvalues --   -0.23489  -0.23047  -0.22718  -0.22384  -0.22222
 Alpha  occ. eigenvalues --   -0.17552
 Alpha virt. eigenvalues --    0.08058   0.08951   0.09454   0.09936   0.10098
 Alpha virt. eigenvalues --    0.10859   0.11070   0.11233   0.11557   0.12401
 Alpha virt. eigenvalues --    0.12572   0.12885   0.13153   0.13261   0.13339

 Mulliken charges:
               1
     1  C    0.487163
     2  N   -0.462816
     3  C   -0.046612
     4  O   -0.974062
     5  N   -0.251109
     6  C   -0.495100
     7  C   -0.421271
     8  C   -1.014892
     9  C   -1.349559
    10  C    0.915309
    11  C   -0.855027
    12  C    0.629774
    13  C   -0.847648
    14  H    0.830518
    15  H    0.901851
    16  H    0.357202
    17  H    0.240147
    18  H    0.287528
    19  H    0.225684
    20  H    0.268224
    21  H    0.269078
    22  H    0.270830
    23  H    0.703923
    24  Cl  -0.473677
    25  H    0.612354
    26  S    2.712035
    27  H    0.502568
    28  F   -0.588279
    29  F   -0.599406
    30  F   -0.587991
    31  F   -0.599574
    32  F   -0.539699
    33  O   -0.903684
    34  O   -0.843138
    35  C    0.683016
    36  C   -0.288418
    37  C   -0.927664
    38  H    0.198426
    39  H    0.193012
    40  H    0.251591
    41  H    0.268162
    42  H    0.261232
 Sum of Mulliken charges =  -1.00000

 Dipole moment (field-independent basis, Debye):
    X=              3.0059    Y=             -0.2854    Z=              0.1117  Tot=              3.0215
 Quadrupole moment (field-independent basis, Debye-Ang):
   XX=           -217.8681   YY=           -201.6487   ZZ=           -165.4806
   XY=              1.8038   XZ=             -0.9609   YZ=             -0.4738

 Normal termination of Gaussian 16 at Tue Sep 22 00:01:18 2020.
