 Gaussian 09, Revision E.01,
 Gaussian 09:  ES64L-G09RevE.01 30-Nov-2015

 -------------------------------------------------------------
 # MP2/Gen 6D SCF=Tight INT(grid=ultrafine) maxdisk=3489660928
 -------------------------------------------------------------

 ---------------
 NM2.MP2_6-31pGd
 ---------------
 Symbolic Z-matrix:
 Charge =  0 Multiplicity = 1

                         Standard orientation:
 ---------------------------------------------------------------------
 Center     Atomic      Atomic             Coordinates (Angstroms)
 Number     Number       Type             X           Y           Z
 ---------------------------------------------------------------------
      1          6           0        0.477651   -0.994912   -0.072457
      2          7           0        1.861944   -1.156612   -0.140301
      3          6           0        2.832463   -0.170000    0.038474
      4          8           0        2.577757    0.981758    0.308610
      5          7           0        4.111417   -0.646454   -0.093137
      6          6           0        5.223270    0.295409   -0.039504
      7          6           0        6.548832   -0.449490    0.014014
      8          6           0        7.729179    0.514662    0.078698
      9          6           0       -0.152946    0.254878   -0.090951
     10          6           0       -1.537724    0.338638   -0.051234
     11          6           0       -2.327954   -0.816331    0.018597
     12          6           0       -1.690842   -2.052346    0.026412
     13          6           0       -0.311161   -2.145170   -0.017436
     14          1           0        2.183573   -2.113040   -0.130922
     15          1           0        4.255488   -1.479712   -0.645255
     16          1           0        5.091692    0.909707    0.852586
     17          1           0        5.195747    0.973767   -0.900311
     18          1           0        6.647095   -1.089430   -0.871020
     19          1           0        6.550945   -1.111301    0.885147
     20          1           0        7.753674    1.168330   -0.796400
     21          1           0        8.677412   -0.023160    0.118974
     22          1           0        7.668178    1.149444    0.965718
     23          1           0        0.441473    1.153723   -0.132756
     24          1           0        0.157576   -3.124095   -0.004883
     25          6           0       -3.836851   -0.804633    0.050013
     26          6           0       -2.131850    1.732735   -0.050061
     27          1           0       -2.282362   -2.957122    0.077857
     28          9           0       -4.327271    0.130340    0.868708
     29          9           0       -4.316017   -1.984781    0.478738
     30          9           0       -4.368449   -0.599984   -1.163114
     31          9           0       -1.253054    2.639717   -0.494160
     32          9           0       -2.492933    2.114403    1.181188
     33          9           0       -3.209886    1.821376   -0.835909
 ---------------------------------------------------------------------

 SCF Done:  E(RHF) =  -1241.89107766     A.U. after   17 cycles
 E2 =    -0.3095320029D+01 EUMP2 =    -0.12449863976843D+04

 The electronic state is 1-A.
 Alpha  occ. eigenvalues --  -26.35368 -26.35141 -26.34993 -26.34987 -26.34686
 Alpha  occ. eigenvalues --  -26.34684 -20.55341 -15.63562 -15.61112 -11.52231
 Alpha  occ. eigenvalues --  -11.52165 -11.41161 -11.32944 -11.29766 -11.28632
 Alpha  occ. eigenvalues --  -11.28099 -11.27743 -11.27283 -11.26542 -11.24648
 Alpha  occ. eigenvalues --  -11.23317  -1.73760  -1.73291  -1.63985  -1.63631
 Alpha  occ. eigenvalues --   -1.63483  -1.63311  -1.43011  -1.29282  -1.25099
 Alpha  occ. eigenvalues --   -1.19643  -1.09106  -1.08146  -1.06665  -0.99041
 Alpha  occ. eigenvalues --   -0.96880  -0.94415  -0.89309  -0.88687  -0.83971
 Alpha  occ. eigenvalues --   -0.83485  -0.82860  -0.82532  -0.82266  -0.81728
 Alpha  occ. eigenvalues --   -0.81513  -0.78861  -0.76707  -0.72315  -0.71377
 Alpha  occ. eigenvalues --   -0.71232  -0.70663  -0.70635  -0.68136  -0.67683
 Alpha  occ. eigenvalues --   -0.67352  -0.66431  -0.65776  -0.65627  -0.64938
 Alpha  occ. eigenvalues --   -0.64466  -0.64424  -0.64271  -0.63439  -0.62923
 Alpha  occ. eigenvalues --   -0.61466  -0.59838  -0.58550  -0.57042  -0.55644
 Alpha  occ. eigenvalues --   -0.54542  -0.53743  -0.52656  -0.50548  -0.49939
 Alpha  occ. eigenvalues --   -0.47710  -0.46396  -0.41948  -0.37913  -0.34075
 Alpha virt. eigenvalues --    0.04003   0.06650   0.07335   0.07715   0.08312
 Alpha virt. eigenvalues --    0.08640   0.09162   0.09348   0.10464   0.10664
 Alpha virt. eigenvalues --    0.10822   0.11258   0.12112   0.12206   0.12659

 Mulliken charges:
               1
     1  C   -0.208483
     2  N   -0.821732
     3  C    0.710701
     4  O   -0.626318
     5  N   -0.667826
     6  C   -0.042270
     7  C   -0.280174
     8  C   -0.673113
     9  C    0.499247
    10  C   -0.709934
    11  C   -1.352537
    12  C    0.031043
    13  C   -0.644751
    14  H    0.459857
    15  H    0.419644
    16  H    0.226589
    17  H    0.204087
    18  H    0.180940
    19  H    0.207264
    20  H    0.197468
    21  H    0.200363
    22  H    0.199264
    23  H    0.349717
    24  H    0.236500
    25  C    1.954078
    26  C    1.980151
    27  H    0.279970
    28  F   -0.373092
    29  F   -0.428189
    30  F   -0.354089
    31  F   -0.422657
    32  F   -0.354012
    33  F   -0.377706
 Sum of Mulliken charges =  -0.00000

 Dipole moment (field-independent basis, Debye):
    X=              7.1814    Y=             -5.8662    Z=             -1.2045  Tot=              9.3506
 Quadrupole moment (field-independent basis, Debye-Ang):
   XX=           -114.4764   YY=           -115.9152   ZZ=           -124.0160
   XY=             -6.8324   XZ=             -4.3249   YZ=              0.5585

 Normal termination of Gaussian 09 at Sat Nov 30 15:09:51 2019.
