 Q-Chem 5.0, Q-Chem, Inc., Pleasanton, CA (2017)
 Q-Chem 5.0.0 for Intel X86 EM64T Linux

User input:
--------------------------------------------------------------
$molecule
  0 1
    C     -5.9099550208    1.1029102801    0.2059437350
    N     -4.6494767407    0.5182841404    0.0777892364
    C     -3.4138117188    1.1630544142    0.1461509459
    O     -3.2849333303    2.3475327393    0.3578042168
    N     -2.3540075044    0.3092653719   -0.0209191281
    C     -1.0062482953    0.8624790515   -0.0817512412
    C      0.0280975331   -0.2528611764   -0.0502013951
    C      1.4484660143    0.3008155964   -0.1048682475
    C     -6.1274416311    2.4844711590    0.1430033865
    C     -7.4141319609    2.9940043568    0.2479216523
    C     -8.5133997698    2.1441298990    0.4285202959
    C     -8.2862282832    0.7731861788    0.4796406160
    C     -7.0074316598    0.2564419841    0.3714194019
    H     -4.6362012495   -0.4894107678    0.1293869442
    H     -2.5094227633   -0.5504332390   -0.5275484910
    H     -0.8831189383    1.5247886590    0.7765518953
    H     -0.8826544472    1.4787579946   -0.9799953312
    H     -0.1340431108   -0.9289267974   -0.8982055488
    H     -0.1138658777   -0.8451207642    0.8586148971
    H      1.6129378672    0.8769409254   -1.0184913194
    H      2.1869941428   -0.5016664591   -0.0800088839
    H      1.6445455155    0.9605415683    0.7435347149
    H     -5.2906362333    3.1527747816    0.0160013344
    H     -6.8611330525   -0.8179860945    0.4200742544
    C     -9.9405732722    2.6232346345    0.5358963699
    C     -7.5514864036    4.5022174458    0.1938858370
    H     -9.1214485945    0.0987615974    0.6164686543
    F    -10.0649794547    3.6980410318    1.3196454496
    F    -10.7280081479    1.6685333292    1.0599639754
    F    -10.4643725553    2.9303579665   -0.6588691509
    F     -6.4692132740    5.0731571004   -0.3491007019
    F     -7.6946869392    5.0289562193    1.4162054480
    F     -8.6009508436    4.8863368726   -0.5400438223

$end

$rem

    JOBTYPE               sp
    METHOD                CCSD(T)
    BASIS                 6-31+G*
    CC_BACKEND            XM

    MEM_TOTAL             60000
$end
--------------------------------------------------------------

             Standard Nuclear Orientation (Angstroms)
    I     Atom           X                Y                Z
 ----------------------------------------------------------------
    1      C      -0.4776513543    -0.9949124318     0.0724574735
    2      N      -1.8619444231    -1.1566120180     0.1403009468
    3      C      -2.8324629037    -0.1699999757    -0.0384744218
    4      O      -2.5777573753     0.9817584450    -0.3086100970
    5      N      -4.1114167612    -0.6464542799     0.0931365106
    6      C      -5.2232704960     0.2954085452     0.0395035169
    7      C      -6.5488317720    -0.4494899018    -0.0140139265
    8      C      -7.7291792823     0.5146619186    -0.0786983771
    9      C       0.1529460817     0.2548784461     0.0909509935
   10      C       1.5377243265     0.3386383393     0.0512342484
   11      C       2.3279538970    -0.8163305136    -0.0185966513
   12      C       1.6908416888    -2.0523458093    -0.0264119206
   13      C       0.3111612200    -2.1451702652     0.0174357962
   14      H      -2.1835728929    -2.1130401376     0.1309217329
   15      H      -4.2554878099    -1.4797117428     0.6452546584
   16      H      -5.0916923425     0.9097074615    -0.8525856938
   17      H      -5.1957465557     0.9737674601     0.9003108331
   18      H      -6.6470945571    -1.0894304491     0.8710204672
   19      H      -6.5509453939    -1.1113010856    -0.8851474248
   20      H      -7.7536743492     1.1683300187     0.7963996227
   21      H      -8.6774118226    -0.0231597357    -0.1189743202
   22      H      -7.6681783029     1.1494442751    -0.9657177432
   23      H      -0.4414726475     1.1537228461     0.1327558496
   24      H      -0.1575758531    -3.1240953145     0.0048828114
   25      C       3.8368512929    -0.8046330601    -0.0500130928
   26      C       2.1318497251     1.7327353478     0.0500613380
   27      H       2.2823621555    -2.9571221926    -0.0778573312
   28      F       4.3272707487     0.1303401728    -0.8687084702
   29      F       4.3160172857    -1.9847814132    -0.4787378728
   30      F       4.3684485634    -0.5999836242     1.1631142831
   31      F       1.2530538796     2.6397168352     0.4941604725
   32      F       2.4929325448     2.1144031109    -1.1811877336
   33      F       3.2098862135     1.8213761723     0.8359087936
 ----------------------------------------------------------------

   15   -1241.8910776350      8.30E-09 Convergence criterion met
 Total energy in the final basis set = -1241.8910776350
 CCSD total energy           = -1245.06170580
 CCSD(T) total energy       = -1245.17535668

                    Orbital Energies (a.u.)
 --------------------------------------------------------------

 Alpha MOs
 -- Occupied --
-26.354 -26.351 -26.350 -26.350 -26.347 -26.347 -20.553 -15.636
-15.611 -11.522 -11.522 -11.412 -11.329 -11.298 -11.286 -11.281
-11.277 -11.273 -11.265 -11.246 -11.233  -1.738  -1.733  -1.640
 -1.636  -1.635  -1.633  -1.430  -1.293  -1.251  -1.196  -1.091
 -1.081  -1.067  -0.990  -0.969  -0.944  -0.893  -0.887  -0.840
 -0.835  -0.829  -0.825  -0.823  -0.817  -0.815  -0.789  -0.767
 -0.723  -0.714  -0.712  -0.707  -0.706  -0.681  -0.677  -0.674
 -0.664  -0.658  -0.656  -0.649  -0.645  -0.644  -0.643  -0.634
 -0.629  -0.615  -0.598  -0.585  -0.570  -0.556  -0.545  -0.537
 -0.527  -0.505  -0.499  -0.477  -0.464  -0.419  -0.379  -0.341

          Ground-State Mulliken Net Atomic Charges

     Atom                 Charge (a.u.)
  ----------------------------------------
      1 C                    -0.208482
      2 N                    -0.821733
      3 C                     0.710700
      4 O                    -0.626318
      5 N                    -0.667826
      6 C                    -0.042269
      7 C                    -0.280176
      8 C                    -0.673112
      9 C                     0.499243
     10 C                    -0.709945
     11 C                    -1.352529
     12 C                     0.031042
     13 C                    -0.644746
     14 H                     0.459857
     15 H                     0.419644
     16 H                     0.226589
     17 H                     0.204087
     18 H                     0.180940
     19 H                     0.207264
     20 H                     0.197468
     21 H                     0.200363
     22 H                     0.199264
     23 H                     0.349717
     24 H                     0.236500
     25 C                     1.954083
     26 C                     1.980151
     27 H                     0.279970
     28 F                    -0.373092
     29 F                    -0.428189
     30 F                    -0.354089
     31 F                    -0.422657
     32 F                    -0.354012
     33 F                    -0.377706
  ----------------------------------------
  Sum of atomic charges =     0.000000

                    Cartesian Multipole Moments
 -----------------------------------------------------------------
    Charge (ESU x 10^10)
                -0.0000
    Dipole Moment (Debye)
         X      -7.1814      Y      -5.8662      Z       1.2045
       Tot       9.3506
    Quadrupole Moments (Debye-Ang)
        XX    -114.4764     XY       6.8324     YY    -115.9152
        XZ      -4.3249     YZ      -0.5585     ZZ    -124.0161

 Total job time:  135875.45s(wall), 863081.43s(cpu)
        *  Thank you very much for using Q-Chem.  Have a nice day.  *
