 Gaussian 09, Revision E.01,

 ----------------------------------------------------------------------
 # M062X/6-311+G* SCF=Tight INT(grid=ultrafine) OPT IOP(2/17=4) Empiric
 alDispersion=GD3 SCRF=(SMD,Solvent=n-Pentadecane) maxdisk=2684354560
 ----------------------------------------------------------------------

 --------------------------------------
 NM2.M062X_6-311pGd_opt_Pentadecane_GD3
 --------------------------------------
 Symbolic Z-matrix:
 Charge =  0 Multiplicity = 1

 SCF Done:  E(RM062X) =  -1248.25995805     A.U. after   15 cycles
 Optimization completed.
    -- Stationary point found.
 Normal termination of Gaussian 09 at Thu Nov 14 09:38:19 2019.
 Gaussian 09:  ES64L-G09RevE.01 30-Nov-2015

 ----------------------------------------------------------------------
 # M062X/6-311+G* SCF=Tight INT(grid=ultrafine) SCRF=(SMD,Solvent=n-Pen
 tadecane) EmpiricalDispersion=GD3 Freq=Noraman maxdisk=2684354560 geom
 =check guess=read IOP(2/17=4)
 ----------------------------------------------------------------------

 --------------------------------------
 NM2.M062X_6-311pGd_opt_Pentadecane_GD3
 --------------------------------------
 Structure from the checkpoint file:  "NM2.M062X_6-311pGd_opt_Pentadecane_GD3.chk"
 Charge =  0 Multiplicity = 1

                         Standard orientation:
 ---------------------------------------------------------------------
 Center     Atomic      Atomic             Coordinates (Angstroms)
 Number     Number       Type             X           Y           Z
 ---------------------------------------------------------------------
      1          6           0        0.485556   -0.979046   -0.072245
      2          7           0        1.867595   -1.134568   -0.126670
      3          6           0        2.838721   -0.141168   -0.011187
      4          8           0        2.578184    1.030080    0.177709
      5          7           0        4.112196   -0.618650   -0.104836
      6          6           0        5.242856    0.300199   -0.101683
      7          6           0        6.543125   -0.460898    0.110827
      8          6           0        7.744430    0.477376    0.113655
      9          6           0       -0.156293    0.266592   -0.080786
     10          6           0       -1.541505    0.338770   -0.042706
     11          6           0       -2.323795   -0.822415    0.017124
     12          6           0       -1.676978   -2.054137    0.012166
     13          6           0       -0.297247   -2.135939   -0.031345
     14          1           0        2.192065   -2.091600   -0.134135
     15          1           0        4.265545   -1.534328   -0.502768
     16          1           0        5.085418    1.019794    0.703222
     17          1           0        5.279581    0.867443   -1.038998
     18          1           0        6.663194   -1.209067   -0.681471
     19          1           0        6.485827   -1.006202    1.057751
     20          1           0        7.830445    1.013819   -0.834739
     21          1           0        8.674460   -0.072264    0.269428
     22          1           0        7.660797    1.221376    0.909859
     23          1           0        0.431675    1.169792   -0.116495
     24          1           0        0.178823   -3.111045   -0.028713
     25          6           0       -3.830192   -0.819862    0.052176
     26          6           0       -2.146295    1.726272   -0.033113
     27          1           0       -2.259149   -2.965863    0.051597
     28          9           0       -4.328267    0.111478    0.874488
     29          9           0       -4.307172   -2.001405    0.478158
     30          9           0       -4.372669   -0.612015   -1.158403
     31          9           0       -1.279145    2.647410   -0.470961
     32          9           0       -2.514792    2.102741    1.199973
     33          9           0       -3.227620    1.813522   -0.818029
 ---------------------------------------------------------------------

 SCF Done:  E(RM062X) =  -1248.25995805     A.U. after    2 cycles

 The electronic state is 1-A.
 Alpha  occ. eigenvalues --  -25.28133 -25.27983 -25.27897 -25.27888 -25.27598
 Alpha  occ. eigenvalues --  -25.27589 -19.60179 -14.80323 -14.78003 -10.80936
 Alpha  occ. eigenvalues --  -10.80875 -10.68991 -10.62441 -10.59719 -10.58924
 Alpha  occ. eigenvalues --  -10.57717 -10.57614 -10.57160 -10.56810 -10.54439
 Alpha  occ. eigenvalues --  -10.52978  -1.47676  -1.47221  -1.38217  -1.37862
 Alpha  occ. eigenvalues --   -1.37731  -1.37566  -1.19599  -1.07989  -1.04486
 Alpha  occ. eigenvalues --   -0.99945  -0.91031  -0.90169  -0.88598  -0.83078
 Alpha  occ. eigenvalues --   -0.81428  -0.78717  -0.75032  -0.74438  -0.70752
 Alpha  occ. eigenvalues --   -0.69958  -0.69901  -0.69631  -0.69286  -0.69270
 Alpha  occ. eigenvalues --   -0.68333  -0.66042  -0.64272  -0.60383  -0.58364
 Alpha  occ. eigenvalues --   -0.58303  -0.57654  -0.57518  -0.56950  -0.55817
 Alpha  occ. eigenvalues --   -0.55788  -0.54457  -0.54129  -0.53529  -0.53057
 Alpha  occ. eigenvalues --   -0.52942  -0.52511  -0.51582  -0.51520  -0.51330
 Alpha  occ. eigenvalues --   -0.50575  -0.49258  -0.48910  -0.47595  -0.46087
 Alpha  occ. eigenvalues --   -0.45553  -0.43889  -0.43341  -0.41432  -0.40798
 Alpha  occ. eigenvalues --   -0.40043  -0.36325  -0.34312  -0.33520  -0.29549
 Alpha virt. eigenvalues --   -0.02197  -0.00712  -0.00431   0.01601   0.02291
 Alpha virt. eigenvalues --    0.02761   0.03141   0.03606   0.04403   0.04708
 Alpha virt. eigenvalues --    0.05043   0.05256   0.06232   0.06563   0.06750

 Mulliken charges:
               1
     1  C   -0.977156
     2  N   -0.374004
     3  C    0.161506
     4  O   -0.358149
     5  N   -0.303227
     6  C   -0.533365
     7  C   -0.126181
     8  C   -1.035858
     9  C    0.208848
    10  C   -0.624030
    11  C   -0.670075
    12  C   -0.283493
    13  C    0.010016
    14  H    0.375397
    15  H    0.357138
    16  H    0.274575
    17  H    0.269900
    18  H    0.241712
    19  H    0.266981
    20  H    0.264737
    21  H    0.273534
    22  H    0.267004
    23  H    0.340302
    24  H    0.260926
    25  C    0.871191
    26  C    0.995877
    27  H    0.301148
    28  F   -0.076120
    29  F   -0.121980
    30  F   -0.044758
    31  F   -0.107126
    32  F   -0.034388
    33  F   -0.070882
 Sum of Mulliken charges =   0.00000

 Dipole moment (field-independent basis, Debye):
    X=              8.3308    Y=             -6.6774    Z=             -1.0077  Tot=             10.7240
 Quadrupole moment (field-independent basis, Debye-Ang):
   XX=           -111.7887   YY=           -114.2295   ZZ=           -123.9423
   XY=             -8.3604   XZ=             -3.5269   YZ=              0.8604

  Exact polarizability: 251.190   3.178 176.796  -2.214   0.728 115.086
 Approx polarizability: 225.479  -0.816 203.454  -2.803   1.567 137.770

                      1                      2                      3
                      A                      A                      A
 Frequencies --     16.2618                31.0237                47.4016
 Red. masses --      5.3322                 3.0548                 6.1242
 Frc consts  --      0.0008                 0.0017                 0.0081
 IR Inten    --      0.5469                 5.3292                 1.6752

                      4                      5                      6
                      A                      A                      A
 Frequencies --     51.3537                62.4922                73.2226
 Red. masses --      4.2667                 5.1539                 3.1480
 Frc consts  --      0.0066                 0.0119                 0.0099
 IR Inten    --      5.8932                 1.8427                 2.0175

                      7                      8                      9
                      A                      A                      A
 Frequencies --     92.2853               100.3868               124.5646
 Red. masses --     18.6301                 4.6761                 5.8892
 Frc consts  --      0.0935                 0.0278                 0.0538
 IR Inten    --      0.0449                 0.2325                 5.1892

                     10                     11                     12
                      A                      A                      A
 Frequencies --    139.5014               169.6878               188.3669
 Red. masses --      7.5463                13.3645                 3.1596
 Frc consts  --      0.0865                 0.2267                 0.0661
 IR Inten    --      0.2512                 1.2883                 2.4280

                     13                     14                     15
                      A                      A                      A
 Frequencies --    205.4566               230.9311               235.3480
 Red. masses --      7.3686                 7.0503                 1.4201
 Frc consts  --      0.1833                 0.2215                 0.0463
 IR Inten    --      0.2155                 8.6450                 0.9970

                     16                     17                     18
                      A                      A                      A
 Frequencies --    239.9867               263.2464               316.3027
 Red. masses --      2.8876                 8.1409                 5.3725
 Frc consts  --      0.0980                 0.3324                 0.3167
 IR Inten    --      3.8759                 3.5520                 1.2446

                     19                     20                     21
                      A                      A                      A
 Frequencies --    328.4650               341.0316               349.2474
 Red. masses --      1.8638                11.3958                 2.5010
 Frc consts  --      0.1185                 0.7809                 0.1797
 IR Inten    --     84.0685                 1.6038                19.3554

                     22                     23                     24
                      A                      A                      A
 Frequencies --    388.4080               398.0405               418.9251
 Red. masses --      7.9512                 5.2082                 4.8995
 Frc consts  --      0.7067                 0.4862                 0.5066
 IR Inten    --      3.5028                13.9049                 5.9245

                     25                     26                     27
                      A                      A                      A
 Frequencies --    465.9254               480.9280               511.2406
 Red. masses --      7.2992                 6.2276                 5.1813
 Frc consts  --      0.9336                 0.8486                 0.7979
 IR Inten    --      7.6245                 1.7282                21.3205

                     28                     29                     30
                      A                      A                      A
 Frequencies --    534.8036               541.5209               573.9296
 Red. masses --      1.2902                 6.9306                14.1176
 Frc consts  --      0.2174                 1.1974                 2.7399
 IR Inten    --    147.9979                 3.8592                 1.4846

                     31                     32                     33
                      A                      A                      A
 Frequencies --    606.4419               622.9032               656.4710
 Red. masses --      5.3697                 8.3836                 5.6737
 Frc consts  --      1.1635                 1.9166                 1.4406
 IR Inten    --     18.3835                 1.2023                 1.5331

                     34                     35                     36
                      A                      A                      A
 Frequencies --    662.8062               684.6739               757.3174
 Red. masses --      7.3766                 9.1078                 1.2267
 Frc consts  --      1.9093                 2.5155                 0.4145
 IR Inten    --     10.6883                19.2016                 9.7811

                     37                     38                     39
                      A                      A                      A
 Frequencies --    763.4069               775.5256               777.0005
 Red. masses --      4.7582                 7.2373                 6.4949
 Frc consts  --      1.6338                 2.5646                 2.3103
 IR Inten    --      1.8072                13.6963                 7.6958

                     40                     41                     42
                      A                      A                      A
 Frequencies --    780.0810               808.0569               856.5527
 Red. masses --      8.1435                 7.0777                 1.4865
 Frc consts  --      2.9197                 2.7229                 0.6426
 IR Inten    --      6.9120                 5.5180                56.1615

                     43                     44                     45
                      A                      A                      A
 Frequencies --    903.5728               928.2386               941.2067
 Red. masses --      1.1870                 1.8606                 1.4190
 Frc consts  --      0.5710                 0.9445                 0.7407
 IR Inten    --      2.5886                 1.7467                25.2183

                     46                     47                     48
                      A                      A                      A
 Frequencies --    957.6515               990.7682              1045.5969
 Red. masses --      4.7654                 1.3357                 4.2504
 Frc consts  --      2.5749                 0.7725                 2.7378
 IR Inten    --     23.4433                 3.7660                 5.8779

                     49                     50                     51
                      A                      A                      A
 Frequencies --   1049.5403              1078.7317              1130.4795
 Red. masses --      6.3159                 2.6047                 3.7775
 Frc consts  --      4.0991                 1.7858                 2.8443
 IR Inten    --     63.7896                11.6055               197.0912

                     52                     53                     54
                      A                      A                      A
 Frequencies --   1149.4991              1165.9321              1166.5514
 Red. masses --      2.5860                 2.6057                 4.6689
 Frc consts  --      2.0132                 2.0870                 3.7434
 IR Inten    --      9.7077                 8.1714               127.7816

                     55                     56                     57
                      A                      A                      A
 Frequencies --   1177.3275              1182.9014              1203.9895
 Red. masses --      7.1466                 1.7958                 8.4193
 Frc consts  --      5.8364                 1.4805                 7.1907
 IR Inten    --     24.3254                 7.7445               590.6639

                     58                     59                     60
                      A                      A                      A
 Frequencies --   1214.7611              1228.1681              1249.3594
 Red. masses --      1.9128                 8.9265                 1.8145
 Frc consts  --      1.6630                 7.9332                 1.6687
 IR Inten    --    322.1610               310.5580               366.4267

                     61                     62                     63
                      A                      A                      A
 Frequencies --   1286.3781              1295.8791              1318.0662
 Red. masses --      1.2871                 2.5867                 3.1952
 Frc consts  --      1.2549                 2.5593                 3.2705
 IR Inten    --    108.1529                61.9669               282.5915

                     64                     65                     66
                      A                      A                      A
 Frequencies --   1324.3324              1332.5399              1350.9211
 Red. masses --      1.8354                 1.2580                 2.1106
 Frc consts  --      1.8966                 1.3161                 2.2694
 IR Inten    --     55.2592               122.5233               364.7835

                     67                     68                     69
                      A                      A                      A
 Frequencies --   1353.4942              1379.7502              1425.2725
 Red. masses --      1.7888                 4.2513                 1.5054
 Frc consts  --      1.9307                 4.7684                 1.8018
 IR Inten    --     78.7234               503.9166                 0.8055

                     70                     71                     72
                      A                      A                      A
 Frequencies --   1431.8751              1476.9785              1503.1766
 Red. masses --      1.3258                 4.7940                 1.0608
 Frc consts  --      1.6015                 6.1616                 1.4122
 IR Inten    --      2.6460               222.8132                 4.4646

                     73                     74                     75
                      A                      A                      A
 Frequencies --   1517.2675              1519.2843              1533.5085
 Red. masses --      1.0386                 1.0714                 1.0922
 Frc consts  --      1.4087                 1.4570                 1.5133
 IR Inten    --     14.1012                 2.2830                 8.8674

                     76                     77                     78
                      A                      A                      A
 Frequencies --   1555.0806              1573.1174              1605.1971
 Red. masses --      1.7444                 2.6457                 2.4616
 Frc consts  --      2.4855                 3.8575                 3.7370
 IR Inten    --    378.2696               148.7123               525.5271

                     79                     80                     81
                      A                      A                      A
 Frequencies --   1667.8856              1694.4060              1805.2860
 Red. masses --      4.5025                 5.3865                 7.3795
 Frc consts  --      7.3797                 9.1115                14.1699
 IR Inten    --    240.0924                32.4686               403.2592

                     82                     83                     84
                      A                      A                      A
 Frequencies --   3056.2141              3059.6481              3070.5240
 Red. masses --      1.0662                 1.0676                 1.0373
 Frc consts  --      5.8677                 5.8884                 5.7624
 IR Inten    --     13.6360                45.0798                35.2324

                     85                     86                     87
                      A                      A                      A
 Frequencies --   3099.5414              3134.5291              3142.4058
 Red. masses --      1.0980                 1.0990                 1.1010
 Frc consts  --      6.2150                 6.3621                 6.4059
 IR Inten    --     15.1559                 3.5043                55.4911

                     88                     89                     90
                      A                      A                      A
 Frequencies --   3147.3390              3208.5558              3248.0685
 Red. masses --      1.1021                 1.0912                 1.0935
 Frc consts  --      6.4321                 6.6189                 6.7969
 IR Inten    --     31.0958                 6.9827                 0.2528

                     91                     92                     93
                      A                      A                      A
 Frequencies --   3299.7741              3632.2287              3642.9364
 Red. masses --      1.0911                 1.0777                 1.0776
 Frc consts  --      6.9997                 8.3774                 8.4258
 IR Inten    --     24.0518                15.3288                84.6359

 - Thermochemistry -
 -------------------
 Temperature   298.150 Kelvin.  Pressure   1.00000 Atm.
 Atom     1 has atomic number  6 and mass  12.00000

 Molecular mass:   314.08538 amu.
 Principal axes and moments of inertia in atomic units:
                           1         2         3
     Eigenvalues --  2534.09211********************
           X            1.00000   0.00241   0.00025
           Y           -0.00241   1.00000   0.00201
           Z           -0.00025  -0.00201   1.00000
 This molecule is an asymmetric top.
 Rotational symmetry number  1.
 Warning -- assumption of classical behavior for rotation
           may cause significant error
 Rotational temperatures (Kelvin)      0.03418     0.00567     0.00505
 Rotational constants (GHZ):           0.71218     0.11806     0.10529
 Zero-point vibrational energy     634782.0 (Joules/Mol)
                                  151.71653 (Kcal/Mol)
 Warning -- explicit consideration of  31 degrees of freedom as
           vibrations may cause significant error
 Vibrational temperatures:     23.40    44.64    68.20    73.89    89.91
          (Kelvin)            105.35   132.78   144.43   179.22   200.71
                              244.14   271.02   295.61   332.26   338.61
                              345.29   378.75   455.09   472.59   490.67
                              502.49   558.83   572.69   602.74   670.36
                              691.95   735.56   769.46   779.13   825.76
                              872.53   896.22   944.51   953.63   985.09
                             1089.61  1098.37  1115.81  1117.93  1122.36
                             1162.61  1232.39  1300.04  1335.53  1354.18
                             1377.85  1425.49  1504.38  1510.05  1552.05
                             1626.51  1653.87  1677.51  1678.41  1693.91
                             1701.93  1732.27  1747.77  1767.06  1797.55
                             1850.81  1864.48  1896.40  1905.42  1917.23
                             1943.67  1947.37  1985.15  2050.65  2060.15
                             2125.04  2162.73  2183.01  2185.91  2206.37
                             2237.41  2263.36  2309.52  2399.71  2437.87
                             2597.40  4397.20  4402.15  4417.79  4459.54
                             4509.88  4521.22  4528.31  4616.39  4673.24
                             4747.63  5225.96  5241.37

 Zero-point correction=                           0.241776 (Hartree/Particle)
 Thermal correction to Energy=                    0.261831
 Thermal correction to Enthalpy=                  0.262775
 Thermal correction to Gibbs Free Energy=         0.190415
 Sum of electronic and zero-point Energies=          -1248.018182
 Sum of electronic and thermal Energies=             -1247.998127
 Sum of electronic and thermal Enthalpies=           -1247.997183
 Sum of electronic and thermal Free Energies=        -1248.069543

                     E (Thermal)             CV                S
                      KCal/Mol        Cal/Mol-Kelvin    Cal/Mol-Kelvin
 Total                  164.302             72.935            152.296
 Electronic               0.000              0.000              0.000
 Translational            0.889              2.981             43.130
 Rotational               0.889              2.981             34.850
 Vibrational            162.524             66.974             74.316
 Vibration     1          0.593              1.986              7.045
 Vibration     2          0.594              1.983              5.763
 Vibration     3          0.595              1.979              4.923
 Vibration     4          0.596              1.977              4.765
 Vibration     5          0.597              1.972              4.377
 Vibration     6          0.599              1.967              4.065
 Vibration     7          0.602              1.955              3.611
 Vibration     8          0.604              1.949              3.447
 Vibration     9          0.610              1.928              3.028
 Vibration    10          0.615              1.914              2.811
 Vibration    11          0.625              1.880              2.439
 Vibration    12          0.633              1.856              2.244
 Vibration    13          0.640              1.832              2.084
 Vibration    14          0.653              1.794              1.872
 Vibration    15          0.655              1.787              1.838
 Vibration    16          0.657              1.779              1.803
 Vibration    17          0.670              1.740              1.640
 Vibration    18          0.703              1.642              1.329
 Vibration    19          0.712              1.619              1.268
 Vibration    20          0.721              1.593              1.207
 Vibration    21          0.727              1.577              1.170
 Vibration    22          0.757              1.495              1.006
 Vibration    23          0.764              1.474              0.970
 Vibration    24          0.782              1.429              0.896
 Vibration    25          0.823              1.326              0.749
 Vibration    26          0.837              1.292              0.708
 Vibration    27          0.866              1.225              0.631
 Vibration    28          0.890              1.173              0.577
 Vibration    29          0.897              1.158              0.562
 Vibration    30          0.930              1.088              0.497
 Vibration    31          0.965              1.018              0.439

 Optimization completed on the basis of negligible forces.
    -- Stationary point found.
 Normal termination of Gaussian 09 at Thu Nov 14 10:31:19 2019.
