 Gaussian 09, Revision E.01,
 Gaussian 09:  ES64L-G09RevE.01 30-Nov-2015

 -------------------------------------------------------------
 # MP2/Gen 5D SCF=Tight INT(grid=ultrafine) maxdisk=3489660928
 -------------------------------------------------------------

 ------------------
 NM2.MP2_GTMP2LARGE
 ------------------
 Symbolic Z-matrix:
 Charge =  0 Multiplicity = 1

                         Standard orientation:
 ---------------------------------------------------------------------
 Center     Atomic      Atomic             Coordinates (Angstroms)
 Number     Number       Type             X           Y           Z
 ---------------------------------------------------------------------
      1          6           0        0.477651   -0.994912   -0.072457
      2          7           0        1.861944   -1.156612   -0.140301
      3          6           0        2.832463   -0.170000    0.038474
      4          8           0        2.577757    0.981758    0.308610
      5          7           0        4.111417   -0.646454   -0.093137
      6          6           0        5.223270    0.295409   -0.039504
      7          6           0        6.548832   -0.449490    0.014014
      8          6           0        7.729179    0.514662    0.078698
      9          6           0       -0.152946    0.254878   -0.090951
     10          6           0       -1.537724    0.338638   -0.051234
     11          6           0       -2.327954   -0.816331    0.018597
     12          6           0       -1.690842   -2.052346    0.026412
     13          6           0       -0.311161   -2.145170   -0.017436
     14          1           0        2.183573   -2.113040   -0.130922
     15          1           0        4.255488   -1.479712   -0.645255
     16          1           0        5.091692    0.909707    0.852586
     17          1           0        5.195747    0.973767   -0.900311
     18          1           0        6.647095   -1.089430   -0.871020
     19          1           0        6.550945   -1.111301    0.885147
     20          1           0        7.753674    1.168330   -0.796400
     21          1           0        8.677412   -0.023160    0.118974
     22          1           0        7.668178    1.149444    0.965718
     23          1           0        0.441473    1.153723   -0.132756
     24          1           0        0.157576   -3.124095   -0.004883
     25          6           0       -3.836851   -0.804633    0.050013
     26          6           0       -2.131850    1.732735   -0.050061
     27          1           0       -2.282362   -2.957122    0.077857
     28          9           0       -4.327271    0.130340    0.868708
     29          9           0       -4.316017   -1.984781    0.478738
     30          9           0       -4.368449   -0.599984   -1.163114
     31          9           0       -1.253054    2.639717   -0.494160
     32          9           0       -2.492933    2.114403    1.181188
     33          9           0       -3.209886    1.821376   -0.835909
 ---------------------------------------------------------------------

 SCF Done:  E(RHF) =  -1242.27487270     A.U. after   16 cycles
 E2 =    -0.4018216453D+01 EUMP2 =    -0.12462930891527D+04

 The electronic state is 1-A.
 Alpha  occ. eigenvalues --  -26.33720 -26.33522 -26.33392 -26.33387 -26.33115
 Alpha  occ. eigenvalues --  -26.33091 -20.53650 -15.62296 -15.59870 -11.51004
 Alpha  occ. eigenvalues --  -11.50955 -11.40118 -11.32200 -11.28998 -11.27824
 Alpha  occ. eigenvalues --  -11.27278 -11.27213 -11.26445 -11.25767 -11.24129
 Alpha  occ. eigenvalues --  -11.22810  -1.73183  -1.72705  -1.63462  -1.63129
 Alpha  occ. eigenvalues --   -1.62970  -1.62813  -1.42467  -1.28850  -1.24718
 Alpha  occ. eigenvalues --   -1.19211  -1.08717  -1.07770  -1.06324  -0.98710
 Alpha  occ. eigenvalues --   -0.96559  -0.94121  -0.88982  -0.88373  -0.83707
 Alpha  occ. eigenvalues --   -0.83207  -0.82575  -0.82290  -0.81994  -0.81471
 Alpha  occ. eigenvalues --   -0.81225  -0.78531  -0.76363  -0.72017  -0.71231
 Alpha  occ. eigenvalues --   -0.71071  -0.70501  -0.70478  -0.67972  -0.67518
 Alpha  occ. eigenvalues --   -0.67130  -0.66313  -0.65600  -0.65528  -0.64745
 Alpha  occ. eigenvalues --   -0.64393  -0.64249  -0.64174  -0.63326  -0.62708
 Alpha  occ. eigenvalues --   -0.61184  -0.59549  -0.58387  -0.56872  -0.55360
 Alpha  occ. eigenvalues --   -0.54439  -0.53441  -0.52441  -0.50372  -0.49809
 Alpha  occ. eigenvalues --   -0.47674  -0.46315  -0.42005  -0.37816  -0.34027
 Alpha virt. eigenvalues --    0.02027   0.03601   0.04488   0.05054   0.05656
 Alpha virt. eigenvalues --    0.06323   0.07130   0.07590   0.07968   0.08326
 Alpha virt. eigenvalues --    0.08773   0.09054   0.09961   0.10323   0.10872

 Mulliken charges:
               1
     1  C   -0.369952
     2  N   -0.279047
     3  C    0.482165
     4  O   -0.511525
     5  N   -0.165570
     6  C   -0.268781
     7  C    0.354703
     8  C   -0.497968
     9  C   -0.075460
    10  C    0.090642
    11  C   -1.020581
    12  C   -0.110162
    13  C   -0.072491
    14  H    0.201221
    15  H    0.184256
    16  H    0.103807
    17  H    0.105384
    18  H    0.016389
    19  H    0.063722
    20  H    0.058662
    21  H    0.083944
    22  H    0.063893
    23  H    0.263400
    24  H    0.111861
    25  C    1.330550
    26  C    1.284498
    27  H    0.192955
    28  F   -0.273139
    29  F   -0.298793
    30  F   -0.251067
    31  F   -0.278987
    32  F   -0.246789
    33  F   -0.271738
 Sum of Mulliken charges =  -0.00000

 Dipole moment (field-independent basis, Debye):
    X=              7.2035    Y=             -5.7307    Z=             -1.1559  Tot=              9.2773
 Quadrupole moment (field-independent basis, Debye-Ang):
   XX=           -113.6728   YY=           -115.4771   ZZ=           -123.0710
   XY=             -6.6480   XZ=             -4.1298   YZ=              0.4985

 Normal termination of Gaussian 09 at Sat Nov 30 16:10:39 2019.
