 Gaussian 09, Revision E.01,
 Gaussian 09:  ES64L-G09RevE.01 30-Nov-2015

 -------------------------------------------------------------
 # MP2/Gen 5D SCF=Tight INT(grid=ultrafine) maxdisk=3489660928
 -------------------------------------------------------------

 ---------------------
 NM2_c2.MP2_GTMP2LARGE
 ---------------------
 Symbolic Z-matrix:
 Charge =  0 Multiplicity = 1

                         Standard orientation:
 ---------------------------------------------------------------------
 Center     Atomic      Atomic             Coordinates (Angstroms)
 Number     Number       Type             X           Y           Z
 ---------------------------------------------------------------------
      1          6           0        0.565523   -0.043546   -0.051216
      2          7           0        1.883148    0.414358   -0.080751
      3          6           0        3.042573   -0.353770    0.014120
      4          8           0        3.042266   -1.554390    0.172782
      5          7           0        4.189796    0.392248   -0.060377
      6          6           0        5.478121   -0.289424   -0.085038
      7          6           0        6.612680    0.712543    0.069526
      8          6           0        7.973260    0.022991    0.052652
      9          6           0       -0.444334    0.926459   -0.010994
     10          6           0       -1.783180    0.577148    0.004856
     11          6           0       -2.150679   -0.775092   -0.030243
     12          6           0       -1.143133   -1.731408   -0.064085
     13          6           0        0.202532   -1.390928   -0.075496
     14          1           0        1.994477    1.415409   -0.020299
     15          1           0        4.148948    1.294170   -0.512540
     16          1           0        5.593085   -0.862870   -1.012400
     17          1           0        5.486136   -1.008233    0.735775
     18          1           0        6.477326    1.262558    1.005457
     19          1           0        6.565799    1.449352   -0.741209
     20          1           0        8.055415   -0.701456    0.866249
     21          1           0        8.783540    0.744423    0.166525
     22          1           0        8.133181   -0.512270   -0.886305
     23          1           0       -0.175232    1.976104    0.015087
     24          1           0        0.959925   -2.158480   -0.096909
     25          6           0       -3.581492   -1.251107    0.006207
     26          6           0       -2.789907    1.706987    0.018670
     27          1           0       -1.412647   -2.779533   -0.088377
     28          9           0       -4.380276   -0.532879   -0.790985
     29          9           0       -4.099563   -1.203640    1.241586
     30          9           0       -3.675543   -2.527252   -0.397942
     31          9           0       -2.220039    2.860350    0.406832
     32          9           0       -3.802083    1.475596    0.856874
     33          9           0       -3.305882    1.928335   -1.196276
 ---------------------------------------------------------------------

 SCF Done:  E(RHF) =  -1242.27600334     A.U. after   16 cycles
 E2 =    -0.4017893119D+01 EUMP2 =    -0.12462938964570D+04

 The electronic state is 1-A.
 Alpha  occ. eigenvalues --  -26.34462 -26.34106 -26.33871 -26.33748 -26.33482
 Alpha  occ. eigenvalues --  -26.33147 -20.53685 -15.62359 -15.59925 -11.51746
 Alpha  occ. eigenvalues --  -11.51042 -11.40193 -11.32205 -11.29407 -11.27832
 Alpha  occ. eigenvalues --  -11.27298 -11.26950 -11.26930 -11.25308 -11.24178
 Alpha  occ. eigenvalues --  -11.22872  -1.73784  -1.72928  -1.64085  -1.63736
 Alpha  occ. eigenvalues --   -1.63293  -1.62945  -1.42486  -1.28907  -1.24776
 Alpha  occ. eigenvalues --   -1.19354  -1.08664  -1.08013  -1.06400  -0.99189
 Alpha  occ. eigenvalues --   -0.96533  -0.94268  -0.89286  -0.88254  -0.84354
 Alpha  occ. eigenvalues --   -0.83397  -0.82995  -0.82915  -0.82316  -0.81829
 Alpha  occ. eigenvalues --   -0.81503  -0.77926  -0.76661  -0.72264  -0.71795
 Alpha  occ. eigenvalues --   -0.71451  -0.70817  -0.70772  -0.68081  -0.67895
 Alpha  occ. eigenvalues --   -0.66970  -0.66819  -0.66010  -0.65864  -0.65105
 Alpha  occ. eigenvalues --   -0.65027  -0.64460  -0.64405  -0.63433  -0.62619
 Alpha  occ. eigenvalues --   -0.61161  -0.59823  -0.58471  -0.56935  -0.55269
 Alpha  occ. eigenvalues --   -0.54528  -0.53665  -0.52492  -0.50438  -0.49869
 Alpha  occ. eigenvalues --   -0.47735  -0.46325  -0.42046  -0.37811  -0.34034
 Alpha virt. eigenvalues --    0.02342   0.03803   0.04799   0.05018   0.05633
 Alpha virt. eigenvalues --    0.06148   0.07373   0.07757   0.07927   0.08228
 Alpha virt. eigenvalues --    0.08486   0.08973   0.10018   0.10280   0.10807

 Mulliken charges:
               1
     1  C   -0.075892
     2  N   -0.298895
     3  C    0.449015
     4  O   -0.512550
     5  N   -0.158032
     6  C   -0.283169
     7  C    0.353492
     8  C   -0.493837
     9  C   -0.437618
    10  C   -0.423228
    11  C   -0.618819
    12  C    0.011708
    13  C   -0.222191
    14  H    0.199311
    15  H    0.181601
    16  H    0.106073
    17  H    0.102955
    18  H    0.064525
    19  H    0.016046
    20  H    0.063109
    21  H    0.084342
    22  H    0.058842
    23  H    0.144410
    24  H    0.247095
    25  C    1.328221
    26  C    1.555485
    27  H    0.185703
    28  F   -0.273627
    29  F   -0.253813
    30  F   -0.297416
    31  F   -0.293460
    32  F   -0.263124
    33  F   -0.246259
 Sum of Mulliken charges =  -0.00000

 Dipole moment (field-independent basis, Debye):
    X=              7.0126    Y=              2.6367    Z=             -0.8763  Tot=              7.5429
 Quadrupole moment (field-independent basis, Debye-Ang):
   XX=           -118.7994   YY=           -120.9185   ZZ=           -123.1247
   XY=             12.9340   XZ=             -3.0685   YZ=             -0.1763

 Normal termination of Gaussian 09 at Sat Nov 30 16:19:07 2019.
