 Q-Chem 5.0, Q-Chem, Inc., Pleasanton, CA (2017)
 Q-Chem 5.0.0 for Intel X86 EM64T Linux

User input:
--------------------------------------------------------------
$molecule
  0 1
    C     -5.8451110657    1.3956072891    0.2410996075
    N     -4.6273729895    0.7173734403    0.1794840355
    C     -3.3559758025    1.2797351030    0.0765910143
    O     -3.1526328263    2.4706033855   -0.0079440270
    N     -2.3545297797    0.3445209325    0.0502761653
    C     -0.9670212277    0.7915786583    0.0550898992
    C     -0.0310305275   -0.3772647782   -0.2146835876
    C      1.4286680526    0.0656676650   -0.2206035552
    C     -7.0094721727    0.6184521531    0.1897791191
    C     -8.2665354785    1.1926672156    0.2593929305
    C     -8.3909977410    2.5822691817    0.3948816493
    C     -7.2315322690    3.3468059155    0.4391125309
    C     -5.9663799895    2.7804033184    0.3652893505
    H     -4.6946457214   -0.2813762974    0.0525015468
    H     -2.5355703394   -0.5658936220    0.4477100621
    H     -0.7200714954    1.2717056925    1.0093185964
    H     -0.8636648896    1.5529941913   -0.7195378329
    H     -0.2942686982   -0.8302763705   -1.1750427021
    H     -0.1761373625   -1.1490062619    0.5506502582
    H      1.6062244216    0.8194015671   -0.9912355711
    H      2.0959881347   -0.7746037732   -0.4171053005
    H      1.7136165905    0.4997547845    0.7406940353
    H     -6.9287201985   -0.4574996853    0.0865417836
    H     -5.0864430910    3.4032285416    0.3975083390
    C     -9.7172052082    3.2982067907    0.4561241002
    C     -9.4547334297    0.2560835061    0.2244489373
    H     -7.3130192581    4.4214579091    0.5404927392
    F    -10.5994339425    2.6747356283    1.2450349391
    F    -10.2802880573    3.4253464609   -0.7536636452
    F     -9.5724201183    4.5407348691    0.9418093387
    F     -9.1093174860   -0.9485608369   -0.2605104779
    F    -10.4408945084    0.7148159864   -0.5486480475
    F     -9.9567815251    0.0436814395    1.4468037690

$end

$rem

    JOBTYPE               sp
    METHOD                CCSD(T)
    BASIS                 6-31+G*
    CC_BACKEND            XM

    MEM_TOTAL             60000
$end
--------------------------------------------------------------

             Standard Nuclear Orientation (Angstroms)
    I     Atom           X                Y                Z
 ----------------------------------------------------------------
    1      C       0.5655234947    -0.0435463579    -0.0512155692
    2      N       1.8831481296     0.4143582701    -0.0807507656
    3      C       3.0425734325    -0.3537699110     0.0141201201
    4      O       3.0422664330    -1.5543897807     0.1727821501
    5      N       4.1897963326     0.3922475158    -0.0603766508
    6      C       5.4781206622    -0.2894239745    -0.0850376586
    7      C       6.6126795909     0.7125427932     0.0695260434
    8      C       7.9732597305     0.0229914258     0.0526519417
    9      C      -0.4443344117     0.9264587403    -0.0109936370
   10      C      -1.7831802817     0.5771484320     0.0048563005
   11      C      -2.1506788637    -0.7750921266    -0.0302426431
   12      C      -1.1431331748    -1.7314076442    -0.0640846947
   13      C       0.2025322334    -1.3909279227    -0.0754962165
   14      H       1.9944765287     1.4154091216    -0.0202991997
   15      H       4.1489476970     1.2941695914    -0.5125403446
   16      H       5.5930850826    -0.8628697085    -1.0124004345
   17      H       5.4861358927    -1.0082328322     0.7357752628
   18      H       6.4773255583     1.2625578329     1.0054567075
   19      H       6.5657989797     1.4493521892    -0.7412087646
   20      H       8.0554150938    -0.7014562221     0.8662494251
   21      H       8.7835402629     0.7444229787     0.1665250779
   22      H       8.1331805430    -0.5122700041    -0.8863054000
   23      H      -0.1752322303     1.9761039112     0.0150873599
   24      H       0.9599250679    -2.1584797893    -0.0969086788
   25      C      -3.5814915268    -1.2511069004     0.0062073500
   26      C      -2.7899072200     1.7069867198     0.0186698381
   27      H      -1.4126466972    -2.7795332780    -0.0883766779
   28      F      -4.3802763784    -0.5328789558    -0.7909849243
   29      F      -4.0995633781    -1.2036400070     1.2415864945
   30      F      -3.6755425391    -2.5272520383    -0.3979422421
   31      F      -2.2200393169     2.8603496862     0.4068324877
   32      F      -3.8020827048     1.4755955552     0.8568744828
   33      F      -3.3058819575     1.9283351277    -1.1962759282
 ----------------------------------------------------------------

   15   -1241.8921743410      8.10E-09 Convergence criterion met
 Total energy in the final basis set = -1241.8921743410
 CCSD total energy           = -1245.06220888
 CCSD(T) total energy       = -1245.17573769

                    Orbital Energies (a.u.)
 --------------------------------------------------------------

 Alpha MOs
 -- Occupied --
-26.361 -26.357 -26.355 -26.354 -26.351 -26.347 -20.554 -15.636
-15.612 -11.530 -11.523 -11.412 -11.330 -11.302 -11.286 -11.278
-11.278 -11.277 -11.261 -11.247 -11.234  -1.744  -1.735  -1.646
 -1.642  -1.638  -1.635  -1.430  -1.293  -1.252  -1.198  -1.090
 -1.084  -1.067  -0.995  -0.969  -0.946  -0.896  -0.886  -0.847
 -0.837  -0.833  -0.832  -0.826  -0.821  -0.818  -0.782  -0.770
 -0.725  -0.720  -0.717  -0.710  -0.709  -0.683  -0.680  -0.672
 -0.670  -0.662  -0.660  -0.653  -0.651  -0.647  -0.645  -0.635
 -0.628  -0.615  -0.601  -0.586  -0.571  -0.556  -0.546  -0.540
 -0.527  -0.506  -0.500  -0.478  -0.464  -0.420  -0.379  -0.341

          Ground-State Mulliken Net Atomic Charges

     Atom                 Charge (a.u.)
  ----------------------------------------
      1 C                    -0.097337
      2 N                    -0.810562
      3 C                     0.661705
      4 O                    -0.634985
      5 N                    -0.690983
      6 C                    -0.082310
      7 C                    -0.275680
      8 C                    -0.674021
      9 C                    -0.536742
     10 C                    -0.813039
     11 C                    -0.845095
     12 C                    -0.143281
     13 C                     0.228696
     14 H                     0.459481
     15 H                     0.419745
     16 H                     0.203034
     17 H                     0.226044
     18 H                     0.207942
     19 H                     0.181814
     20 H                     0.198867
     21 H                     0.200788
     22 H                     0.197090
     23 H                     0.264660
     24 H                     0.322138
     25 C                     1.818883
     26 C                     2.052684
     27 H                     0.282215
     28 F                    -0.381676
     29 F                    -0.358190
     30 F                    -0.428457
     31 F                    -0.431408
     32 F                    -0.370860
     33 F                    -0.351161
  ----------------------------------------
  Sum of atomic charges =     0.000000

                    Cartesian Multipole Moments
 -----------------------------------------------------------------
    Charge (ESU x 10^10)
                 0.0000
    Dipole Moment (Debye)
         X       6.9752      Y       2.7111      Z      -0.9157
       Tot       7.5394
    Quadrupole Moments (Debye-Ang)
        XX    -119.7909     XY      13.2761     YY    -121.4717
        XZ      -3.2372     YZ      -0.2190     ZZ    -124.0820

 Total job time:  134101.77s(wall), 896321.97s(cpu)
        *  Thank you very much for using Q-Chem.  Have a nice day.  *
