 Gaussian 09, Revision E.01,
 Gaussian 09:  ES64L-G09RevE.01 30-Nov-2015

 -------------------------------------------------------------
 # MP2/Gen 6D SCF=Tight INT(grid=ultrafine) maxdisk=3489660928
 -------------------------------------------------------------

 ------------------
 NM2_c2.MP2_6-31pGd
 ------------------
 Symbolic Z-matrix:
 Charge =  0 Multiplicity = 1

                         Standard orientation:
 ---------------------------------------------------------------------
 Center     Atomic      Atomic             Coordinates (Angstroms)
 Number     Number       Type             X           Y           Z
 ---------------------------------------------------------------------
      1          6           0        0.565523   -0.043546   -0.051216
      2          7           0        1.883148    0.414358   -0.080751
      3          6           0        3.042573   -0.353770    0.014120
      4          8           0        3.042266   -1.554390    0.172782
      5          7           0        4.189796    0.392248   -0.060377
      6          6           0        5.478121   -0.289424   -0.085038
      7          6           0        6.612680    0.712543    0.069526
      8          6           0        7.973260    0.022991    0.052652
      9          6           0       -0.444334    0.926459   -0.010994
     10          6           0       -1.783180    0.577148    0.004856
     11          6           0       -2.150679   -0.775092   -0.030243
     12          6           0       -1.143133   -1.731408   -0.064085
     13          6           0        0.202532   -1.390928   -0.075496
     14          1           0        1.994477    1.415409   -0.020299
     15          1           0        4.148948    1.294170   -0.512540
     16          1           0        5.593085   -0.862870   -1.012400
     17          1           0        5.486136   -1.008233    0.735775
     18          1           0        6.477326    1.262558    1.005457
     19          1           0        6.565799    1.449352   -0.741209
     20          1           0        8.055415   -0.701456    0.866249
     21          1           0        8.783540    0.744423    0.166525
     22          1           0        8.133181   -0.512270   -0.886305
     23          1           0       -0.175232    1.976104    0.015087
     24          1           0        0.959925   -2.158480   -0.096909
     25          6           0       -3.581492   -1.251107    0.006207
     26          6           0       -2.789907    1.706987    0.018670
     27          1           0       -1.412647   -2.779533   -0.088377
     28          9           0       -4.380276   -0.532879   -0.790985
     29          9           0       -4.099563   -1.203640    1.241586
     30          9           0       -3.675543   -2.527252   -0.397942
     31          9           0       -2.220039    2.860350    0.406832
     32          9           0       -3.802083    1.475596    0.856874
     33          9           0       -3.305882    1.928335   -1.196276
 ---------------------------------------------------------------------

 SCF Done:  E(RHF) =  -1241.89217436     A.U. after   17 cycles
 E2 =    -0.3094679222D+01 EUMP2 =    -0.12449868535822D+04

 The electronic state is 1-A.
 Alpha  occ. eigenvalues --  -26.36115 -26.35721 -26.35470 -26.35393 -26.35095
 Alpha  occ. eigenvalues --  -26.34741 -20.55372 -15.63632 -15.61169 -11.52982
 Alpha  occ. eigenvalues --  -11.52274 -11.41235 -11.32952 -11.30197 -11.28643
 Alpha  occ. eigenvalues --  -11.27827 -11.27797 -11.27728 -11.26078 -11.24696
 Alpha  occ. eigenvalues --  -11.23379  -1.74381  -1.73524  -1.64623  -1.64249
 Alpha  occ. eigenvalues --   -1.63829  -1.63453  -1.43027  -1.29341  -1.25157
 Alpha  occ. eigenvalues --   -1.19794  -1.09046  -1.08408  -1.06740  -0.99533
 Alpha  occ. eigenvalues --   -0.96857  -0.94565  -0.89610  -0.88588  -0.84672
 Alpha  occ. eigenvalues --   -0.83657  -0.83267  -0.83180  -0.82600  -0.82096
 Alpha  occ. eigenvalues --   -0.81802  -0.78231  -0.77032  -0.72541  -0.71957
 Alpha  occ. eigenvalues --   -0.71652  -0.70987  -0.70946  -0.68261  -0.68049
 Alpha  occ. eigenvalues --   -0.67205  -0.66966  -0.66187  -0.65970  -0.65310
 Alpha  occ. eigenvalues --   -0.65113  -0.64654  -0.64494  -0.63543  -0.62832
 Alpha  occ. eigenvalues --   -0.61468  -0.60111  -0.58635  -0.57105  -0.55567
 Alpha  occ. eigenvalues --   -0.54631  -0.53962  -0.52709  -0.50614  -0.49999
 Alpha  occ. eigenvalues --   -0.47774  -0.46403  -0.41989  -0.37908  -0.34087
 Alpha virt. eigenvalues --    0.04447   0.07352   0.07807   0.07886   0.07996
 Alpha virt. eigenvalues --    0.08249   0.09083   0.09463   0.10269   0.10613
 Alpha virt. eigenvalues --    0.10835   0.11143   0.11862   0.12014   0.12445

 Mulliken charges:
               1
     1  C   -0.097337
     2  N   -0.810562
     3  C    0.661705
     4  O   -0.634985
     5  N   -0.690983
     6  C   -0.082310
     7  C   -0.275679
     8  C   -0.674021
     9  C   -0.536741
    10  C   -0.813032
    11  C   -0.845095
    12  C   -0.143281
    13  C    0.228695
    14  H    0.459481
    15  H    0.419745
    16  H    0.203034
    17  H    0.226044
    18  H    0.207942
    19  H    0.181814
    20  H    0.198867
    21  H    0.200788
    22  H    0.197090
    23  H    0.264660
    24  H    0.322138
    25  C    1.818881
    26  C    2.052679
    27  H    0.282215
    28  F   -0.381676
    29  F   -0.358190
    30  F   -0.428457
    31  F   -0.431408
    32  F   -0.370860
    33  F   -0.351161
 Sum of Mulliken charges =  -0.00000

 Dipole moment (field-independent basis, Debye):
    X=              6.9752    Y=              2.7111    Z=             -0.9157  Tot=              7.5394
 Quadrupole moment (field-independent basis, Debye-Ang):
   XX=           -119.7909   YY=           -121.4717   ZZ=           -124.0820
   XY=             13.2761   XZ=             -3.2372   YZ=             -0.2190

 Normal termination of Gaussian 09 at Sat Nov 30 15:11:35 2019.
