 Gaussian 16, Revision C.01,
 Gaussian 16:  ES64L-G16RevC.01  3-Jul-2019

 ---------------------------------------------------------------------
 # DSDPBEP86/AUG-cc-PVTZ SCF=Tight INT(grid=ultrafine) MaxDisk=60000MB
 ---------------------------------------------------------------------

 ----------------------------
 CP21CA.DSDPBEP86_AUG-cc-PVTZ
 ----------------------------
 Symbolic Z-matrix:
 Charge =  0 Multiplicity = 1

                         Standard orientation:
 ---------------------------------------------------------------------
 Center     Atomic      Atomic             Coordinates (Angstroms)
 Number     Number       Type             X           Y           Z
 ---------------------------------------------------------------------
      1          6           0        0.944402    0.542741   -0.138276
      2          7           0        2.308525    0.727244    0.079844
      3          6           0        3.326232   -0.174716   -0.135702
      4          8           0        3.209591   -1.296819   -0.551030
      5          8           0        4.490034    0.403352    0.195942
      6          6           0        5.657615   -0.417523    0.025523
      7          6           0        6.860112    0.401716    0.440803
      8          6           0        8.146958   -0.404596    0.287501
      9          6           0        0.400891   -0.649951   -0.634905
     10          6           0       -0.969016   -0.745557   -0.823929
     11          6           0       -1.787063    0.337155   -0.520681
     12          6           0       -1.262098    1.529315   -0.028221
     13          6           0        0.102331    1.625929    0.159572
     14          1           0        2.603509    1.625395    0.434257
     15          1           0        5.718960   -0.727725   -1.020333
     16          1           0        5.547081   -1.316365    0.636863
     17          1           0        6.732166    0.722027    1.478312
     18          1           0        6.902281    1.307067   -0.170716
     19          1           0        8.128378   -1.303808    0.907943
     20          1           0        9.015149    0.184607    0.584819
     21          1           0        8.298042   -0.718039   -0.748266
     22          1           0        1.044759   -1.482529   -0.872115
     23          6           0       -4.061094   -0.474717    0.929526
     24          1           0       -1.917759    2.364493    0.188691
     25          1           0        0.528514    2.550045    0.535873
     26          9           0       -3.722478    0.377755    1.888435
     27          9           0       -5.371805   -0.637707    0.929722
     28          9           0       -3.471001   -1.639537    1.161201
     29         16           0       -3.528662    0.190772   -0.731365
     30          8           0       -3.823280   -0.866634   -1.673927
     31          8           0       -4.122039    1.508200   -0.817927
     32          1           0       -1.404666   -1.656404   -1.218346
 ---------------------------------------------------------------------

 SCF Done:  E(RDSDPBEP86) =  -1476.22164005     A.U. after   14 cycles
 E2(DSDPBEP86) =    -0.1948199802D+01 E(DSDPBEP86) =    -0.14781698398529D+04

 The electronic state is 1-A.
 Alpha  occ. eigenvalues --  -91.00269 -25.74015 -25.73990 -25.73839 -20.07195
 Alpha  occ. eigenvalues --  -20.01744 -20.01720 -20.00619 -15.15205 -11.11619
 Alpha  occ. eigenvalues --  -11.00922 -10.91749 -10.89001 -10.87374 -10.86989
 Alpha  occ. eigenvalues --  -10.86717 -10.85694 -10.84673 -10.83257 -10.82210
 Alpha  occ. eigenvalues --   -8.77568  -6.56393  -6.56304  -6.56284  -1.60850
 Alpha  occ. eigenvalues --   -1.51389  -1.51385  -1.36435  -1.34480  -1.26174
 Alpha  occ. eigenvalues --   -1.23776  -1.18011  -1.08124  -0.99253  -0.97072
 Alpha  occ. eigenvalues --   -0.95946  -0.92656  -0.88034  -0.84242  -0.80770
 Alpha  occ. eigenvalues --   -0.79412  -0.76890  -0.76860  -0.75681  -0.74019
 Alpha  occ. eigenvalues --   -0.72328  -0.70530  -0.68072  -0.65465  -0.64679
 Alpha  occ. eigenvalues --   -0.64565  -0.64013  -0.61778  -0.60850  -0.60543
 Alpha  occ. eigenvalues --   -0.59935  -0.59486  -0.58647  -0.58575  -0.58573
 Alpha  occ. eigenvalues --   -0.57689  -0.56724  -0.55849  -0.53465  -0.53374
 Alpha  occ. eigenvalues --   -0.50538  -0.50119  -0.48237  -0.47892  -0.45894
 Alpha  occ. eigenvalues --   -0.45824  -0.45266  -0.45221  -0.43608  -0.43523
 Alpha  occ. eigenvalues --   -0.42574  -0.41814  -0.40563  -0.34989  -0.32070
 Alpha virt. eigenvalues --    0.00543   0.00818   0.01339   0.02327   0.02408
 Alpha virt. eigenvalues --    0.02870   0.03124   0.03413   0.04439   0.04638
 Alpha virt. eigenvalues --    0.04881   0.05157   0.05463   0.05871   0.06488

 Mulliken charges:
               1
     1  C    0.894553
     2  N   -0.117710
     3  C    0.398824
     4  O   -0.777000
     5  O   -0.398028
     6  C   -0.215869
     7  C   -0.471112
     8  C   -0.962115
     9  C   -0.552251
    10  C   -0.654202
    11  C    0.708378
    12  C   -0.595261
    13  C   -0.645415
    14  H   -0.024632
    15  H    0.337242
    16  H    0.334333
    17  H    0.213578
    18  H    0.213303
    19  H    0.279244
    20  H    0.286554
    21  H    0.279029
    22  H    0.618571
    23  C    1.001992
    24  H    0.398646
    25  H    0.336599
    26  F   -0.394001
    27  F   -0.363817
    28  F   -0.393277
    29  S    1.905507
    30  O   -1.004316
    31  O   -1.009269
    32  H    0.371922
 Sum of Mulliken charges =  -0.00000

 Dipole moment (field-independent basis, Debye):
    X=              7.7654    Y=              2.0252    Z=              2.5057  Tot=              8.4073
 Quadrupole moment (field-independent basis, Debye-Ang):
   XX=           -122.0491   YY=           -121.2752   ZZ=           -126.6576
   XY=              6.9881   XZ=             -5.4484   YZ=              1.0530

 Normal termination of Gaussian 16 at Thu Sep 10 16:46:14 2020.
