 Gaussian 09, Revision E.01,

 ----------------------------------------------------------------------
 # M062X/6-311+G* SCF=Tight INT(grid=ultrafine) OPT IOP(2/17=4) Empiric
 alDispersion=GD3 maxdisk=2684354560
 ----------------------------------------------------------------------

 -----------------------------
 CP21CA.M062X_6-311pGd_opt_GD3
 -----------------------------
 Symbolic Z-matrix:
 Charge =  0 Multiplicity = 1

 SCF Done:  E(RM062X) =  -1479.61064873     A.U. after   16 cycles
 Optimization completed.
    -- Stationary point found.
 Normal termination of Gaussian 09 at Thu Nov 14 17:27:26 2019.
 Gaussian 09:  ES64L-G09RevE.01 30-Nov-2015

 ----------------------------------------------------------------------
 # M062X/6-311+G* SCF=Tight INT(grid=ultrafine) EmpiricalDispersion=GD3
  Freq=Noraman maxdisk=2684354560 geom=check guess=read IOP(2/17=4)
 ----------------------------------------------------------------------

 -----------------------------
 CP21CA.M062X_6-311pGd_opt_GD3
 -----------------------------
 Structure from the checkpoint file:  "CP21CA.M062X_6-311pGd_opt_GD3.chk"
 Charge =  0 Multiplicity = 1

                         Standard orientation:
 ---------------------------------------------------------------------
 Center     Atomic      Atomic             Coordinates (Angstroms)
 Number     Number       Type             X           Y           Z
 ---------------------------------------------------------------------
      1          6           0        0.944402    0.542741   -0.138276
      2          7           0        2.308525    0.727244    0.079844
      3          6           0        3.326232   -0.174716   -0.135702
      4          8           0        3.209591   -1.296819   -0.551030
      5          8           0        4.490034    0.403352    0.195942
      6          6           0        5.657615   -0.417523    0.025523
      7          6           0        6.860112    0.401716    0.440803
      8          6           0        8.146958   -0.404596    0.287501
      9          6           0        0.400891   -0.649951   -0.634905
     10          6           0       -0.969016   -0.745557   -0.823929
     11          6           0       -1.787063    0.337155   -0.520681
     12          6           0       -1.262098    1.529315   -0.028221
     13          6           0        0.102331    1.625929    0.159572
     14          1           0        2.603509    1.625395    0.434257
     15          1           0        5.718960   -0.727725   -1.020333
     16          1           0        5.547081   -1.316365    0.636863
     17          1           0        6.732166    0.722027    1.478312
     18          1           0        6.902281    1.307067   -0.170716
     19          1           0        8.128378   -1.303808    0.907943
     20          1           0        9.015149    0.184607    0.584819
     21          1           0        8.298042   -0.718039   -0.748266
     22          1           0        1.044759   -1.482529   -0.872115
     23          6           0       -4.061094   -0.474717    0.929526
     24          1           0       -1.917759    2.364493    0.188691
     25          1           0        0.528514    2.550045    0.535873
     26          9           0       -3.722478    0.377755    1.888435
     27          9           0       -5.371805   -0.637707    0.929722
     28          9           0       -3.471001   -1.639537    1.161201
     29         16           0       -3.528662    0.190772   -0.731365
     30          8           0       -3.823280   -0.866634   -1.673927
     31          8           0       -4.122039    1.508200   -0.817927
     32          1           0       -1.404666   -1.656404   -1.218346
 ---------------------------------------------------------------------

 SCF Done:  E(RM062X) =  -1479.61064873     A.U. after    2 cycles

 The electronic state is 1-A.
 Alpha  occ. eigenvalues --  -90.12539 -25.30932 -25.30906 -25.30809 -19.69106
 Alpha  occ. eigenvalues --  -19.64357 -19.64340 -19.63136 -14.82161 -10.83252
 Alpha  occ. eigenvalues --  -10.72732 -10.63805 -10.61289 -10.59979 -10.59169
 Alpha  occ. eigenvalues --  -10.58900 -10.58312 -10.57321 -10.55573 -10.54462
 Alpha  occ. eigenvalues --   -8.46935  -6.39127  -6.39082  -6.39026  -1.50590
 Alpha  occ. eigenvalues --   -1.41144  -1.41096  -1.27243  -1.26506  -1.17340
 Alpha  occ. eigenvalues --   -1.15843  -1.09710  -1.00340  -0.92366  -0.90290
 Alpha  occ. eigenvalues --   -0.88930  -0.86725  -0.82340  -0.78975  -0.75620
 Alpha  occ. eigenvalues --   -0.74506  -0.72717  -0.72661  -0.70726  -0.69260
 Alpha  occ. eigenvalues --   -0.68047  -0.66611  -0.64168  -0.61646  -0.61071
 Alpha  occ. eigenvalues --   -0.60425  -0.59985  -0.57948  -0.56948  -0.56496
 Alpha  occ. eigenvalues --   -0.56407  -0.56153  -0.55548  -0.55120  -0.54327
 Alpha  occ. eigenvalues --   -0.54223  -0.53333  -0.52446  -0.50654  -0.50182
 Alpha  occ. eigenvalues --   -0.47942  -0.47418  -0.45213  -0.44923  -0.43236
 Alpha  occ. eigenvalues --   -0.42911  -0.42570  -0.42482  -0.41582  -0.40773
 Alpha  occ. eigenvalues --   -0.39842  -0.38999  -0.37937  -0.34810  -0.31397
 Alpha virt. eigenvalues --   -0.03756  -0.01473  -0.00916   0.00860   0.01659
 Alpha virt. eigenvalues --    0.02051   0.02366   0.02881   0.03413   0.03911
 Alpha virt. eigenvalues --    0.04225   0.04332   0.05302   0.05884   0.06065

 Mulliken charges:
               1
     1  C   -0.614014
     2  N   -0.462586
     3  C    0.044870
     4  O   -0.289125
     5  O   -0.055041
     6  C   -0.335026
     7  C   -0.137989
     8  C   -1.026484
     9  C   -0.117798
    10  C   -0.266119
    11  C   -0.019645
    12  C   -0.137364
    13  C   -0.493485
    14  H    0.403450
    15  H    0.270421
    16  H    0.270047
    17  H    0.259476
    18  H    0.259736
    19  H    0.260308
    20  H    0.275405
    21  H    0.260313
    22  H    0.312650
    23  C    0.004762
    24  H    0.305289
    25  H    0.243420
    26  F   -0.035139
    27  F   -0.061865
    28  F   -0.034009
    29  S    0.750029
    30  O   -0.067380
    31  O   -0.074513
    32  H    0.307408
 Sum of Mulliken charges =  -0.00000

 Dipole moment (field-independent basis, Debye):
    X=              7.7722    Y=              1.9746    Z=              2.4384  Tot=              8.3816
 Quadrupole moment (field-independent basis, Debye-Ang):
   XX=           -122.1299   YY=           -121.9194   ZZ=           -127.6492
   XY=              6.6239   XZ=             -5.3043   YZ=              1.2017

  Exact polarizability: 250.686  -3.668 148.861   8.002  12.426 117.532
 Approx polarizability: 238.439  -3.847 211.941  10.012  24.279 154.596

                      1                      2                      3
                      A                      A                      A
 Frequencies --     18.2952                24.6928                38.7687
 Red. masses --      6.0574                 3.9006                13.2737
 Frc consts  --      0.0012                 0.0014                 0.0118
 IR Inten    --      0.3344                 1.4872                 0.0184

                      4                      5                      6
                      A                      A                      A
 Frequencies --     47.6788                52.5952                62.0317
 Red. masses --      6.8040                 3.1512                 5.3145
 Frc consts  --      0.0091                 0.0051                 0.0120
 IR Inten    --      0.0047                 0.0071                 0.1770

                      7                      8                      9
                      A                      A                      A
 Frequencies --     78.2673                81.9733               135.9014
 Red. masses --      2.7300                 4.7186                 6.6038
 Frc consts  --      0.0099                 0.0187                 0.0719
 IR Inten    --      3.3403                 0.1187                 2.6245

                     10                     11                     12
                      A                      A                      A
 Frequencies --    148.2197               182.1473               189.3270
 Red. masses --      4.7761                 4.3749                 7.7217
 Frc consts  --      0.0618                 0.0855                 0.1631
 IR Inten    --      4.2875                 1.8154                 2.3280

                     13                     14                     15
                      A                      A                      A
 Frequencies --    199.6433               218.0787               239.5813
 Red. masses --     14.2677                 5.3249                 1.1340
 Frc consts  --      0.3351                 0.1492                 0.0384
 IR Inten    --      1.6932                 1.7923                 0.1327

                     16                     17                     18
                      A                      A                      A
 Frequencies --    254.9731               306.0138               310.4638
 Red. masses --     10.6159                 7.5255                13.7975
 Frc consts  --      0.4066                 0.4152                 0.7836
 IR Inten    --      7.2041                 1.3328                 0.4845

                     19                     20                     21
                      A                      A                      A
 Frequencies --    330.9023               351.8997               359.4606
 Red. masses --      6.5084                 5.2479                 7.9763
 Frc consts  --      0.4199                 0.3829                 0.6072
 IR Inten    --      1.6430                 9.7520                 8.9226

                     22                     23                     24
                      A                      A                      A
 Frequencies --    379.9685               420.3650               448.4644
 Red. masses --      7.8110                 3.0304                 8.1562
 Frc consts  --      0.6644                 0.3155                 0.9665
 IR Inten    --     15.8880                 0.0151                 2.9697

                     25                     26                     27
                      A                      A                      A
 Frequencies --    481.5169               517.0997               531.9854
 Red. masses --      5.6382                 3.4886                12.6344
 Frc consts  --      0.7702                 0.5496                 2.1067
 IR Inten    --     25.9420                 2.1815                27.3637

                     28                     29                     30
                      A                      A                      A
 Frequencies --    565.3191               566.8353               583.5044
 Red. masses --     17.3171                 1.1506                 6.8426
 Frc consts  --      3.2607                 0.2178                 1.3727
 IR Inten    --      0.0191                44.8491                81.2131

                     31                     32                     33
                      A                      A                      A
 Frequencies --    616.2378               639.7575               716.1749
 Red. masses --      9.1125                 7.1803                 6.7176
 Frc consts  --      2.0389                 1.7315                 2.0300
 IR Inten    --    195.2214                 1.2808                93.9145

                     34                     35                     36
                      A                      A                      A
 Frequencies --    732.2473               764.6746               783.6478
 Red. masses --      4.0743                 1.1230                11.9764
 Frc consts  --      1.2871                 0.3869                 4.3333
 IR Inten    --     11.1413                 5.7968                 1.9173

                     37                     38                     39
                      A                      A                      A
 Frequencies --    790.1618               791.0398               843.5579
 Red. masses --      8.4818                 9.1812                 1.4197
 Frc consts  --      3.1201                 3.3849                 0.5952
 IR Inten    --     10.3779                25.6386                21.6314

                     40                     41                     42
                      A                      A                      A
 Frequencies --    870.9373               872.2538               904.2092
 Red. masses --      1.4283                 5.1689                 1.1544
 Frc consts  --      0.6383                 2.3171                 0.5561
 IR Inten    --     25.5937                13.9817                 2.4142

                     43                     44                     45
                      A                      A                      A
 Frequencies --    934.3907               984.1454              1010.4140
 Red. masses --      1.6387                 1.3172                 1.3345
 Frc consts  --      0.8430                 0.7517                 0.8027
 IR Inten    --     12.5869                 0.9305                 0.8750

                     46                     47                     48
                      A                      A                      A
 Frequencies --   1025.0346              1029.4921              1075.0070
 Red. masses --      6.7904                 3.7278                 2.5646
 Frc consts  --      4.2036                 2.3278                 1.7462
 IR Inten    --     10.0339                 5.7698                 2.2034

                     49                     50                     51
                      A                      A                      A
 Frequencies --   1102.3261              1121.9215              1157.7957
 Red. masses --      4.6349                 5.3219                 2.6416
 Frc consts  --      3.3182                 3.9468                 2.0863
 IR Inten    --    135.9929               199.4102               249.0011

                     52                     53                     54
                      A                      A                      A
 Frequencies --   1162.1267              1170.0411              1197.2527
 Red. masses --      1.6774                 2.2710                 1.6615
 Frc consts  --      1.3348                 1.8318                 1.4032
 IR Inten    --     56.2198                 2.7976                 0.8105

                     55                     56                     57
                      A                      A                      A
 Frequencies --   1215.2534              1232.1818              1260.2973
 Red. masses --      1.6420                 3.5031                 2.3188
 Frc consts  --      1.4287                 3.1337                 2.1700
 IR Inten    --    239.2925               114.6913               681.2516

                     58                     59                     60
                      A                      A                      A
 Frequencies --   1261.7373              1280.7572              1294.4894
 Red. masses --     12.4585                12.6733                 1.1845
 Frc consts  --     11.6857                12.2483                 1.1694
 IR Inten    --    155.1418               293.3752                 0.7499

                     61                     62                     63
                      A                      A                      A
 Frequencies --   1308.2195              1339.4748              1340.7462
 Red. masses --      4.7552                 1.0707                 1.4136
 Frc consts  --      4.7949                 1.1318                 1.4971
 IR Inten    --    217.5449                 0.4402                11.9866

                     64                     65                     66
                      A                      A                      A
 Frequencies --   1349.1574              1356.3307              1379.5150
 Red. masses --      1.4623                 4.5667                12.2974
 Frc consts  --      1.5682                 4.9498                13.7885
 IR Inten    --      3.4448               109.6878               254.5751

                     67                     68                     69
                      A                      A                      A
 Frequencies --   1433.5863              1443.5702              1460.3982
 Red. masses --      1.2778                 1.5846                 2.6888
 Frc consts  --      1.5473                 1.9456                 3.3788
 IR Inten    --      3.3188                54.0340                99.0887

                     70                     71                     72
                      A                      A                      A
 Frequencies --   1510.7523              1524.6023              1525.2436
 Red. masses --      1.0628                 1.0541                 1.0632
 Frc consts  --      1.4292                 1.4436                 1.4573
 IR Inten    --      2.0394                 6.8801                 4.8656

                     73                     74                     75
                      A                      A                      A
 Frequencies --   1536.8860              1547.3105              1585.9296
 Red. masses --      1.1091                 2.1893                 2.5447
 Frc consts  --      1.5435                 3.0882                 3.7710
 IR Inten    --     44.9885                 0.3077               820.3993

                     76                     77                     78
                      A                      A                      A
 Frequencies --   1658.7988              1672.6409              1855.9574
 Red. masses --      4.9640                 5.5292                10.5381
 Frc consts  --      8.0477                 9.1142                21.3869
 IR Inten    --    162.0105               105.1496               292.2166

                     79                     80                     81
                      A                      A                      A
 Frequencies --   3072.3961              3080.1768              3091.6871
 Red. masses --      1.0382                 1.0596                 1.0575
 Frc consts  --      5.7743                 5.9228                 5.9553
 IR Inten    --     17.7968                 6.7891                32.6929

                     82                     83                     84
                      A                      A                      A
 Frequencies --   3113.0114              3135.2842              3149.3511
 Red. masses --      1.1044                 1.1062                 1.1069
 Frc consts  --      6.3059                 6.4066                 6.4687
 IR Inten    --      0.0744                 0.8087                55.4024

                     85                     86                     87
                      A                      A                      A
 Frequencies --   3153.5388              3207.9493              3232.9707
 Red. masses --      1.1015                 1.0902                 1.0919
 Frc consts  --      6.4539                 6.6104                 6.7243
 IR Inten    --     23.4534                 6.4619                 1.5965

                     88                     89                     90
                      A                      A                      A
 Frequencies --   3234.5917              3286.3808              3652.6874
 Red. masses --      1.0947                 1.0929                 1.0771
 Frc consts  --      6.7479                 6.9547                 8.4673
 IR Inten    --      3.3280                 9.2024                51.5046

 - Thermochemistry -
 -------------------
 Temperature   298.150 Kelvin.  Pressure   1.00000 Atm.
 Atom     1 has atomic number  6 and mass  12.00000

 Molecular mass:   311.04391 amu.
 Principal axes and moments of inertia in atomic units:
                           1         2         3
     Eigenvalues --  1737.84107********************
           X            0.99997  -0.00495   0.00533
           Y            0.00370   0.97705   0.21297
           Z           -0.00627  -0.21294   0.97705
 This molecule is an asymmetric top.
 Rotational symmetry number  1.
 Warning -- assumption of classical behavior for rotation
           may cause significant error
 Rotational temperatures (Kelvin)      0.04984     0.00461     0.00457
 Rotational constants (GHZ):           1.03850     0.09598     0.09532
 Zero-point vibrational energy     617301.1 (Joules/Mol)
                                  147.53850 (Kcal/Mol)
 Warning -- explicit consideration of  31 degrees of freedom as
           vibrations may cause significant error
 Vibrational temperatures:     26.32    35.53    55.78    68.60    75.67
          (Kelvin)             89.25   112.61   117.94   195.53   213.25
                              262.07   272.40   287.24   313.77   344.70
                              366.85   440.29   446.69   476.09   506.30
                              517.18   546.69   604.81   645.24   692.79
                              743.99   765.41   813.37   815.55   839.53
                              886.63   920.47  1030.41  1053.54  1100.19
                             1127.49  1136.87  1138.13  1213.69  1253.08
                             1254.98  1300.95  1344.38  1415.96  1453.76
                             1474.79  1481.21  1546.69  1586.00  1614.19
                             1665.81  1672.04  1683.43  1722.58  1748.48
                             1772.83  1813.28  1815.36  1842.72  1862.48
                             1882.23  1927.20  1929.03  1941.13  1951.45
                             1984.81  2062.61  2076.97  2101.18  2173.63
                             2193.56  2194.48  2211.23  2226.23  2281.80
                             2386.64  2406.55  2670.31  4420.49  4431.68
                             4448.24  4478.92  4510.97  4531.21  4537.23
                             4615.52  4651.52  4653.85  4728.36  5255.40

 Zero-point correction=                           0.235118 (Hartree/Particle)
 Thermal correction to Energy=                    0.254757
 Thermal correction to Enthalpy=                  0.255702
 Thermal correction to Gibbs Free Energy=         0.183320
 Sum of electronic and zero-point Energies=          -1479.375531
 Sum of electronic and thermal Energies=             -1479.355891
 Sum of electronic and thermal Enthalpies=           -1479.354947
 Sum of electronic and thermal Free Energies=        -1479.427329

                     E (Thermal)             CV                S
                      KCal/Mol        Cal/Mol-Kelvin    Cal/Mol-Kelvin
 Total                  159.863             70.416            152.340
 Electronic               0.000              0.000              0.000
 Translational            0.889              2.981             43.101
 Rotational               0.889              2.981             34.780
 Vibrational            158.085             64.455             74.459
 Vibration     1          0.593              1.986              6.811
 Vibration     2          0.593              1.985              6.216
 Vibration     3          0.594              1.981              5.321
 Vibration     4          0.595              1.978              4.911
 Vibration     5          0.596              1.977              4.717
 Vibration     6          0.597              1.972              4.391
 Vibration     7          0.600              1.964              3.934
 Vibration     8          0.600              1.961              3.843
 Vibration     9          0.614              1.917              2.861
 Vibration    10          0.618              1.905              2.695
 Vibration    11          0.630              1.864              2.306
 Vibration    12          0.633              1.855              2.234
 Vibration    13          0.638              1.840              2.136
 Vibration    14          0.646              1.814              1.975
 Vibration    15          0.657              1.780              1.806
 Vibration    16          0.665              1.754              1.696
 Vibration    17          0.696              1.662              1.384
 Vibration    18          0.699              1.654              1.360
 Vibration    19          0.713              1.614              1.256
 Vibration    20          0.728              1.571              1.158
 Vibration    21          0.734              1.556              1.124
 Vibration    22          0.750              1.513              1.039
 Vibration    23          0.783              1.426              0.891
 Vibration    24          0.807              1.364              0.800
 Vibration    25          0.838              1.291              0.706
 Vibration    26          0.872              1.212              0.617
 Vibration    27          0.887              1.179              0.583
 Vibration    28          0.921              1.106              0.513
 Vibration    29          0.923              1.103              0.510
 Vibration    30          0.940              1.067              0.479
 Vibration    31          0.976              0.998              0.423

 Optimization completed.
    -- Stationary point found.
 Normal termination of Gaussian 09 at Thu Nov 14 18:56:52 2019.
