 Gaussian 09, Revision E.01,

 ----------------------------------------------------------------------
 # M062X/6-311+G* SCF=Tight INT(grid=ultrafine) OPT=CalcFC IOP(2/17=4)
 EmpiricalDispersion=GD3 SCRF=(SMD,Solvent=h2o) maxdisk=2684354560
 ----------------------------------------------------------------------

 -----------------------------------
 CP21CA.M062X_6-311pGd_opt_water_GD3
 -----------------------------------
 Symbolic Z-matrix:
 Charge =  0 Multiplicity = 1

 SCF Done:  E(RM062X) =  -1479.52135413     A.U. after   17 cycles
 SCF Done:  E(RM062X) =  -1479.57829912     A.U. after   15 cycles
 SCF Done:  E(RM062X) =  -1479.61536769     A.U. after   17 cycles
 SCF Done:  E(RM062X) =  -1479.61329593     A.U. after   15 cycles
 SCF Done:  E(RM062X) =  -1479.62043897     A.U. after   13 cycles
 SCF Done:  E(RM062X) =  -1479.62444213     A.U. after   16 cycles
 SCF Done:  E(RM062X) =  -1479.62822451     A.U. after   15 cycles
 SCF Done:  E(RM062X) =  -1479.62715137     A.U. after   14 cycles
 SCF Done:  E(RM062X) =  -1479.62822615     A.U. after    9 cycles
 SCF Done:  E(RM062X) =  -1479.62883081     A.U. after   16 cycles
 SCF Done:  E(RM062X) =  -1479.62895127     A.U. after   14 cycles
 SCF Done:  E(RM062X) =  -1479.62894662     A.U. after   14 cycles
 SCF Done:  E(RM062X) =  -1479.62901444     A.U. after   14 cycles
 SCF Done:  E(RM062X) =  -1479.62903226     A.U. after   14 cycles
 SCF Done:  E(RM062X) =  -1479.62903041     A.U. after   12 cycles
 SCF Done:  E(RM062X) =  -1479.62902483     A.U. after   11 cycles
 SCF Done:  E(RM062X) =  -1479.62902906     A.U. after   10 cycles
 SCF Done:  E(RM062X) =  -1479.62903062     A.U. after   10 cycles
 SCF Done:  E(RM062X) =  -1479.62903231     A.U. after   10 cycles
 Optimization completed.
    -- Stationary point found.
 Normal termination of Gaussian 09 at Thu Dec 12 18:59:38 2019.
 Gaussian 09:  ES64L-G09RevE.01 30-Nov-2015

 ----------------------------------------------------------------------
 # M062X/6-311+G* SCF=Tight INT(grid=ultrafine) EmpiricalDispersion=GD3
  SCRF=(SMD,Solvent=h2o) Freq=Noraman maxdisk=2684354560 geom=check gue
 ss=read IOP(2/17=4)
 ----------------------------------------------------------------------

 -----------------------------------
 CP21CA.M062X_6-311pGd_opt_water_GD3
 -----------------------------------
 Structure from the checkpoint file:  "CP21CA.M062X_6-311pGd_opt_water_GD3.chk"
 Charge =  0 Multiplicity = 1

                         Standard orientation:
 ---------------------------------------------------------------------
 Center     Atomic      Atomic             Coordinates (Angstroms)
 Number     Number       Type             X           Y           Z
 ---------------------------------------------------------------------
      1          6           0        0.945743   -0.507311    0.202870
      2          7           0        2.303766   -0.720964   -0.006584
      3          6           0        3.329878    0.172884    0.142146
      4          8           0        3.224209    1.328754    0.494088
      5          8           0        4.487497   -0.420017   -0.161106
      6          6           0        5.669920    0.402706   -0.051328
      7          6           0        6.855310   -0.445312   -0.451610
      8          6           0        8.144166    0.363829   -0.355456
      9          6           0        0.400450    0.731323    0.571101
     10          6           0       -0.967394    0.849631    0.752086
     11          6           0       -1.781144   -0.265564    0.571899
     12          6           0       -1.257873   -1.505860    0.201342
     13          6           0        0.104117   -1.618735    0.020724
     14          1           0        2.577683   -1.654058   -0.293018
     15          1           0        5.754867    0.751423    0.979906
     16          1           0        5.554112    1.266410   -0.709128
     17          1           0        6.708990   -0.806120   -1.473305
     18          1           0        6.906961   -1.320652    0.201495
     19          1           0        8.112152    1.235647   -1.013761
     20          1           0        9.005540   -0.240906   -0.643411
     21          1           0        8.310651    0.719416    0.664466
     22          1           0        1.031349    1.593256    0.716705
     23          6           0       -4.061759    0.342940   -0.992357
     24          1           0       -1.902105   -2.366093    0.063165
     25          1           0        0.533891   -2.573538   -0.260216
     26          9           0       -3.727740   -0.630326   -1.823946
     27          9           0       -5.375792    0.493651   -0.992088
     28          9           0       -3.486377    1.469548   -1.378441
     29         16           0       -3.510478   -0.089413    0.737344
     30          8           0       -3.839593    1.081984    1.535496
     31          8           0       -4.139564   -1.372148    1.014123
     32          1           0       -1.392517    1.804936    1.036653
 ---------------------------------------------------------------------

 SCF Done:  E(RM062X) =  -1479.62903231     A.U. after    1 cycles

 The electronic state is 1-A.
 Alpha  occ. eigenvalues --  -90.13871 -25.31707 -25.31691 -25.31689 -19.67853
 Alpha  occ. eigenvalues --  -19.65873 -19.65861 -19.62413 -14.80494 -10.84292
 Alpha  occ. eigenvalues --  -10.71994 -10.62640 -10.59784 -10.59104 -10.58127
 Alpha  occ. eigenvalues --  -10.58123 -10.56585 -10.56261 -10.53110 -10.51922
 Alpha  occ. eigenvalues --   -8.48285  -6.40495  -6.40424  -6.40350  -1.51448
 Alpha  occ. eigenvalues --   -1.42002  -1.41979  -1.27755  -1.26000  -1.17035
 Alpha  occ. eigenvalues --   -1.16091  -1.08230  -0.99579  -0.91454  -0.89297
 Alpha  occ. eigenvalues --   -0.87843  -0.86807  -0.81436  -0.78573  -0.74898
 Alpha  occ. eigenvalues --   -0.73904  -0.73599  -0.73258  -0.69641  -0.67619
 Alpha  occ. eigenvalues --   -0.67283  -0.65027  -0.63624  -0.61861  -0.61233
 Alpha  occ. eigenvalues --   -0.60616  -0.59479  -0.58384  -0.57551  -0.57322
 Alpha  occ. eigenvalues --   -0.57110  -0.56618  -0.55060  -0.54110  -0.53743
 Alpha  occ. eigenvalues --   -0.53668  -0.51848  -0.51003  -0.49343  -0.49029
 Alpha  occ. eigenvalues --   -0.46465  -0.45559  -0.44662  -0.44523  -0.43693
 Alpha  occ. eigenvalues --   -0.42731  -0.42292  -0.41235  -0.40193  -0.40116
 Alpha  occ. eigenvalues --   -0.39616  -0.38282  -0.38021  -0.33804  -0.30364
 Alpha virt. eigenvalues --   -0.03598  -0.00358   0.00976   0.01991   0.02749
 Alpha virt. eigenvalues --    0.03007   0.03127   0.03755   0.04092   0.04379
 Alpha virt. eigenvalues --    0.04748   0.05199   0.05899   0.06513   0.06661

 Mulliken charges:
               1
     1  C   -0.273006
     2  N   -0.477271
     3  C    0.140515
     4  O   -0.404823
     5  O   -0.080502
     6  C   -0.348792
     7  C   -0.166946
     8  C   -1.065709
     9  C   -0.194527
    10  C    0.075310
    11  C    0.027276
    12  C   -0.310854
    13  C   -0.997382
    14  H    0.484842
    15  H    0.290954
    16  H    0.290970
    17  H    0.271534
    18  H    0.271268
    19  H    0.272464
    20  H    0.284217
    21  H    0.272560
    22  H    0.323280
    23  C    0.070843
    24  H    0.338445
    25  H    0.308560
    26  F   -0.033373
    27  F   -0.066439
    28  F   -0.032312
    29  S    0.745841
    30  O   -0.171762
    31  O   -0.180686
    32  H    0.335504
 Sum of Mulliken charges =  -0.00000

 Dipole moment (field-independent basis, Debye):
    X=             10.0795    Y=             -3.6285    Z=             -3.6569  Tot=             11.3197
 Quadrupole moment (field-independent basis, Debye-Ang):
   XX=           -128.6006   YY=           -120.6034   ZZ=           -128.8265
   XY=             -8.8088   XZ=              8.9265   YZ=              0.3411

  Exact polarizability: 318.280   5.280 232.023 -13.031  17.772 166.394
 Approx polarizability: 245.889   2.980 213.396 -11.069  17.394 150.354

                      1                      2                      3
                      A                      A                      A
 Frequencies --     12.4251                23.2302                38.0610
 Red. masses --      5.4433                 5.3232                 6.9757
 Frc consts  --      0.0005                 0.0017                 0.0060
 IR Inten    --      3.2899                 2.3760                 0.2121

                      4                      5                      6
                      A                      A                      A
 Frequencies --     40.9117                48.1021                62.5125
 Red. masses --      5.0398                 7.1780                 5.1779
 Frc consts  --      0.0050                 0.0098                 0.0119
 IR Inten    --      0.1234                 0.1180                 0.5693

                      7                      8                      9
                      A                      A                      A
 Frequencies --     79.0345                87.3796               136.2037
 Red. masses --      3.9652                 2.4122                 6.4550
 Frc consts  --      0.0146                 0.0109                 0.0706
 IR Inten    --      1.6044                 5.3982                 5.8938

                     10                     11                     12
                      A                      A                      A
 Frequencies --    148.6379               177.5404               187.4605
 Red. masses --      4.7166                 4.1316                 9.2969
 Frc consts  --      0.0614                 0.0767                 0.1925
 IR Inten    --      9.2667                 5.0107                 6.6854

                     13                     14                     15
                      A                      A                      A
 Frequencies --    195.2346               220.2634               245.2449
 Red. masses --     13.4750                 5.2739                 1.1424
 Frc consts  --      0.3026                 0.1508                 0.0405
 IR Inten    --      3.6315                 3.0156                 0.7589

                     16                     17                     18
                      A                      A                      A
 Frequencies --    252.6643               307.0840               310.1320
 Red. masses --      9.3492                 8.5076                12.6646
 Frc consts  --      0.3517                 0.4727                 0.7177
 IR Inten    --     15.1987                 1.5934                 1.1182

                     19                     20                     21
                      A                      A                      A
 Frequencies --    330.6565               354.6844               357.9293
 Red. masses --      6.5527                 5.1368                 8.4219
 Frc consts  --      0.4221                 0.3807                 0.6357
 IR Inten    --      7.5172                16.6009                10.5748

                     22                     23                     24
                      A                      A                      A
 Frequencies --    380.7977               416.9624               446.6006
 Red. masses --      8.0243                 2.9597                 7.9511
 Frc consts  --      0.6856                 0.3032                 0.9344
 IR Inten    --     28.5746                 0.1545                 9.0902

                     25                     26                     27
                      A                      A                      A
 Frequencies --    478.4911               510.8247               527.8717
 Red. masses --      6.0051                 3.1994                10.8456
 Frc consts  --      0.8101                 0.4919                 1.7806
 IR Inten    --     64.7188                 8.3286                49.9710

                     28                     29                     30
                      A                      A                      A
 Frequencies --    563.1595               571.2476               582.9274
 Red. masses --     17.2233                 8.3646                 1.1285
 Frc consts  --      3.2183                 1.6082                 0.2259
 IR Inten    --      0.0559               165.3912               148.8262

                     31                     32                     33
                      A                      A                      A
 Frequencies --    601.2252               636.2595               714.1785
 Red. masses --     10.6749                 7.1434                 6.0934
 Frc consts  --      2.2735                 1.7038                 1.8311
 IR Inten    --    317.7606                 2.5907               129.4044

                     34                     35                     36
                      A                      A                      A
 Frequencies --    725.3427               766.4548               780.4359
 Red. masses --      4.1614                 1.1564                 9.5528
 Frc consts  --      1.2899                 0.4002                 3.4281
 IR Inten    --     21.6281                22.7961                 4.8567

                     37                     38                     39
                      A                      A                      A
 Frequencies --    785.6591               789.7793               839.6012
 Red. masses --      6.2001                13.1306                 1.2557
 Frc consts  --      2.2548                 4.8255                 0.5215
 IR Inten    --     28.4874                34.5474                 0.1078

                     40                     41                     42
                      A                      A                      A
 Frequencies --    852.9444               871.7407               908.5508
 Red. masses --      1.7009                 5.2180                 1.1475
 Frc consts  --      0.7291                 2.3363                 0.5581
 IR Inten    --    102.8706                20.5620                 4.4210

                     43                     44                     45
                      A                      A                      A
 Frequencies --    934.0413               985.8231              1002.4147
 Red. masses --      1.6118                 1.3181                 1.3579
 Frc consts  --      0.8285                 0.7547                 0.8039
 IR Inten    --     20.0789                 2.0316                 0.0769

                     46                     47                     48
                      A                      A                      A
 Frequencies --   1012.9947              1021.8970              1074.7267
 Red. masses --      7.5937                 3.8240                 2.5056
 Frc consts  --      4.5911                 2.3528                 1.7051
 IR Inten    --     26.0467                21.8310                11.7015

                     49                     50                     51
                      A                      A                      A
 Frequencies --   1078.9293              1105.4342              1133.9909
 Red. masses --      5.1012                 6.6127                 3.2498
 Frc consts  --      3.4987                 4.7610                 2.4622
 IR Inten    --    241.0023               630.1860               553.4225

                     52                     53                     54
                      A                      A                      A
 Frequencies --   1161.2318              1166.7160              1191.5670
 Red. masses --      1.4588                 1.9684                 1.6498
 Frc consts  --      1.1590                 1.5787                 1.3801
 IR Inten    --      9.7743                26.2188                 1.3476

                     55                     56                     57
                      A                      A                      A
 Frequencies --   1205.5413              1225.4160              1241.7251
 Red. masses --      2.8115                 2.0441                13.0854
 Frc consts  --      2.4074                 1.8085                11.8874
 IR Inten    --    493.0295                35.9230               323.5574

                     58                     59                     60
                      A                      A                      A
 Frequencies --   1241.8264              1258.0834              1288.7626
 Red. masses --     12.8858                 2.7663                 1.1831
 Frc consts  --     11.7080                 2.5797                 1.1577
 IR Inten    --    379.9858              1157.1436                 2.8417

                     61                     62                     63
                      A                      A                      A
 Frequencies --   1301.5442              1307.8422              1337.8857
 Red. masses --      4.2365                 9.9012                 1.0696
 Frc consts  --      4.2284                 9.9781                 1.1280
 IR Inten    --    170.6297               475.6925                 1.6361

                     64                     65                     66
                      A                      A                      A
 Frequencies --   1340.7789              1346.3769              1365.6416
 Red. masses --      1.3969                 1.4913                 4.7774
 Frc consts  --      1.4796                 1.5927                 5.2495
 IR Inten    --     22.1844                18.0077               330.2516

                     67                     68                     69
                      A                      A                      A
 Frequencies --   1418.7790              1443.0274              1456.4025
 Red. masses --      1.2755                 1.5912                 2.7921
 Frc consts  --      1.5127                 1.9522                 3.4894
 IR Inten    --      9.1574                16.5308               131.4591

                     70                     71                     72
                      A                      A                      A
 Frequencies --   1485.2321              1503.1446              1508.9667
 Red. masses --      1.0618                 1.0384                 1.0907
 Frc consts  --      1.3801                 1.3823                 1.4632
 IR Inten    --      1.1519                13.8938                 2.0864

                     73                     74                     75
                      A                      A                      A
 Frequencies --   1522.2486              1543.3160              1581.7945
 Red. masses --      1.0968                 2.4144                 2.2245
 Frc consts  --      1.4975                 3.3882                 3.2793
 IR Inten    --     32.9867               134.0910              1042.0415

                     76                     77                     78
                      A                      A                      A
 Frequencies --   1650.5706              1663.5779              1753.7643
 Red. masses --      5.8459                 3.5138                 9.4627
 Frc consts  --      9.3837                 5.7295                17.1478
 IR Inten    --    383.1251                 2.8307               822.1174

                     79                     80                     81
                      A                      A                      A
 Frequencies --   3070.8897              3081.2000              3097.8296
 Red. masses --      1.0371                 1.0603                 1.0570
 Frc consts  --      5.7622                 5.9310                 5.9764
 IR Inten    --     30.8808                24.5581                48.0679

                     82                     83                     84
                      A                      A                      A
 Frequencies --   3116.9089              3139.1326              3149.9946
 Red. masses --      1.1042                 1.1049                 1.1024
 Frc consts  --      6.3205                 6.4147                 6.4447
 IR Inten    --      1.0572                34.2325                41.0145

                     85                     86                     87
                      A                      A                      A
 Frequencies --   3155.7137              3230.8667              3240.2822
 Red. masses --      1.1102                 1.0901                 1.0926
 Frc consts  --      6.5138                 6.7045                 6.7592
 IR Inten    --     79.6595                 0.5314                 2.6646

                     88                     89                     90
                      A                      A                      A
 Frequencies --   3243.1936              3298.1211              3603.2148
 Red. masses --      1.0966                 1.0929                 1.0780
 Frc consts  --      6.7958                 7.0044                 8.2463
 IR Inten    --      4.8826                10.9206               189.2042

 - Thermochemistry -
 -------------------
 Temperature   298.150 Kelvin.  Pressure   1.00000 Atm.
 Atom     1 has atomic number  6 and mass  12.00000

 Molecular mass:   311.04391 amu.
 Principal axes and moments of inertia in atomic units:
                           1         2         3
     Eigenvalues --  1736.21690********************
           X            0.99997   0.00435  -0.00605
           Y           -0.00281   0.97208   0.23462
           Z            0.00690  -0.23460   0.97207
 This molecule is an asymmetric top.
 Rotational symmetry number  1.
 Warning -- assumption of classical behavior for rotation
           may cause significant error
 Rotational temperatures (Kelvin)      0.04989     0.00460     0.00458
 Rotational constants (GHZ):           1.03947     0.09578     0.09536
 Zero-point vibrational energy     614018.1 (Joules/Mol)
                                  146.75385 (Kcal/Mol)
 Warning -- explicit consideration of  31 degrees of freedom as
           vibrations may cause significant error
 Vibrational temperatures:     17.88    33.42    54.76    58.86    69.21
          (Kelvin)             89.94   113.71   125.72   195.97   213.86
                              255.44   269.71   280.90   316.91   352.85
                              363.53   441.82   446.21   475.74   510.31
                              514.98   547.88   599.92   642.56   688.44
                              734.96   759.49   810.26   821.90   838.70
                              865.03   915.43  1027.54  1043.61  1102.76
                             1122.87  1130.39  1136.31  1208.00  1227.20
                             1254.24  1307.20  1343.88  1418.38  1442.25
                             1457.47  1470.28  1546.29  1552.34  1590.47
                             1631.56  1670.75  1678.64  1714.40  1734.50
                             1763.10  1786.56  1786.71  1810.10  1854.24
                             1872.63  1881.69  1924.92  1929.08  1937.13
                             1964.85  2041.30  2076.19  2095.44  2136.92
                             2162.69  2171.06  2190.17  2220.48  2275.85
                             2374.80  2393.51  2523.27  4418.32  4433.15
                             4457.08  4484.53  4516.51  4532.13  4540.36
                             4648.49  4662.04  4666.23  4745.25  5184.22

 Zero-point correction=                           0.233867 (Hartree/Particle)
 Thermal correction to Energy=                    0.253594
 Thermal correction to Enthalpy=                  0.254538
 Thermal correction to Gibbs Free Energy=         0.181469
 Sum of electronic and zero-point Energies=          -1479.395165
 Sum of electronic and thermal Energies=             -1479.375438
 Sum of electronic and thermal Enthalpies=           -1479.374494
 Sum of electronic and thermal Free Energies=        -1479.447563

                     E (Thermal)             CV                S
                      KCal/Mol        Cal/Mol-Kelvin    Cal/Mol-Kelvin
 Total                  159.133             70.755            153.786
 Electronic               0.000              0.000              0.000
 Translational            0.889              2.981             43.101
 Rotational               0.889              2.981             34.781
 Vibrational            157.355             64.794             75.905
 Vibration     1          0.593              1.987              7.580
 Vibration     2          0.593              1.985              6.337
 Vibration     3          0.594              1.982              5.358
 Vibration     4          0.594              1.981              5.214
 Vibration     5          0.595              1.978              4.894
 Vibration     6          0.597              1.972              4.376
 Vibration     7          0.600              1.963              3.915
 Vibration     8          0.601              1.958              3.718
 Vibration     9          0.614              1.917              2.857
 Vibration    10          0.618              1.904              2.690
 Vibration    11          0.628              1.870              2.354
 Vibration    12          0.632              1.857              2.253
 Vibration    13          0.636              1.847              2.178
 Vibration    14          0.647              1.810              1.957
 Vibration    15          0.660              1.771              1.765
 Vibration    16          0.664              1.758              1.712
 Vibration    17          0.697              1.660              1.378
 Vibration    18          0.699              1.654              1.362
 Vibration    19          0.713              1.614              1.257
 Vibration    20          0.731              1.566              1.145
 Vibration    21          0.733              1.559              1.131
 Vibration    22          0.751              1.511              1.036
 Vibration    23          0.780              1.433              0.902
 Vibration    24          0.806              1.368              0.806
 Vibration    25          0.835              1.298              0.714
 Vibration    26          0.866              1.226              0.632
 Vibration    27          0.883              1.188              0.592
 Vibration    28          0.919              1.111              0.518
 Vibration    29          0.927              1.093              0.502
 Vibration    30          0.940              1.068              0.480
 Vibration    31          0.959              1.029              0.448

 Normal termination of Gaussian 09 at Thu Dec 12 20:25:21 2019.
