 Gaussian 09, Revision E.01,

 ----------------------------------------------------------------------
 # M062X/6-311+G* SCF=Tight INT(grid=ultrafine) OPT=CalcFC IOP(2/17=4)
 EmpiricalDispersion=GD3 SCRF=(SMD,Solvent=n-Pentadecane) maxdisk=26843
 54560
 ----------------------------------------------------------------------

 -----------------------------------------
 CP21CA.M062X_6-311pGd_opt_Pentadecane_GD3
 -----------------------------------------
 Symbolic Z-matrix:
 Charge =  0 Multiplicity = 1

 SCF Done:  E(RM062X) =  -1479.62393488     A.U. after   16 cycles
 SCF Done:  E(RM062X) =  -1479.62403306     A.U. after   12 cycles
 SCF Done:  E(RM062X) =  -1479.62403656     A.U. after   11 cycles
 SCF Done:  E(RM062X) =  -1479.62403565     A.U. after    9 cycles
 Optimization completed.
    -- Stationary point found.
 Normal termination of Gaussian 09 at Tue Nov 19 12:23:26 2019.
 Gaussian 09:  ES64L-G09RevE.01 30-Nov-2015

 ----------------------------------------------------------------------
 # M062X/6-311+G* SCF=Tight INT(grid=ultrafine) EmpiricalDispersion=GD3
  SCRF=(SMD,Solvent=n-Pentadecane) Freq=Noraman maxdisk=2684354560 geom
 =check guess=read IOP(2/17=4)
 ----------------------------------------------------------------------

 -----------------------------------------
 CP21CA.M062X_6-311pGd_opt_Pentadecane_GD3
 -----------------------------------------
 Structure from the checkpoint file:  "CP21CA.M062X_6-311pGd_opt_Pentadecane_GD3.chk"
 Charge =  0 Multiplicity = 1

                         Standard orientation:
 ---------------------------------------------------------------------
 Center     Atomic      Atomic             Coordinates (Angstroms)
 Number     Number       Type             X           Y           Z
 ---------------------------------------------------------------------
      1          6           0        0.948746    0.530199   -0.136478
      2          7           0        2.310198    0.716328    0.082165
      3          6           0        3.329925   -0.183383   -0.127728
      4          8           0        3.212765   -1.310427   -0.534913
      5          8           0        4.490864    0.397386    0.195903
      6          6           0        5.665806   -0.418147    0.032141
      7          6           0        6.863558    0.416243    0.428884
      8          6           0        8.153208   -0.384811    0.281684
      9          6           0        0.400304   -0.669735   -0.611624
     10          6           0       -0.968657   -0.764489   -0.803710
     11          6           0       -1.782865    0.328479   -0.524207
     12          6           0       -1.254222    1.527775   -0.049780
     13          6           0        0.109265    1.622483    0.139605
     14          1           0        2.599361    1.621473    0.427642
     15          1           0        5.725911   -0.741659   -1.009642
     16          1           0        5.565824   -1.306873    0.659852
     17          1           0        6.739880    0.750991    1.462499
     18          1           0        6.898378    1.311306   -0.198320
     19          1           0        8.144144   -1.273880    0.917378
     20          1           0        9.019637    0.215015    0.564644
     21          1           0        8.301306   -0.714321   -0.749892
     22          1           0        1.038060   -1.511415   -0.831913
     23          6           0       -4.070153   -0.455925    0.930801
     24          1           0       -1.902717    2.371545    0.154850
     25          1           0        0.539118    2.551288    0.499279
     26          9           0       -3.733184    0.404355    1.882460
     27          9           0       -5.383739   -0.605825    0.921721
     28          9           0       -3.496132   -1.624178    1.181785
     29         16           0       -3.521096    0.183625   -0.734546
     30          8           0       -3.827033   -0.885769   -1.662734
     31          8           0       -4.120709    1.498444   -0.844500
     32          1           0       -1.401830   -1.684138   -1.180079
 ---------------------------------------------------------------------

 SCF Done:  E(RM062X) =  -1479.62403565     A.U. after    2 cycles

 The electronic state is 1-A.
 Alpha  occ. eigenvalues --  -90.12671 -25.31062 -25.31037 -25.30965 -19.68267
 Alpha  occ. eigenvalues --  -19.64526 -19.64507 -19.62425 -14.81262 -10.83383
 Alpha  occ. eigenvalues --  -10.72007 -10.63154 -10.60201 -10.59658 -10.58594
 Alpha  occ. eigenvalues --  -10.58403 -10.57491 -10.56706 -10.54374 -10.53219
 Alpha  occ. eigenvalues --   -8.47068  -6.39264  -6.39216  -6.39152  -1.50724
 Alpha  occ. eigenvalues --   -1.41268  -1.41243  -1.26611  -1.26454  -1.16529
 Alpha  occ. eigenvalues --   -1.15920  -1.08891  -0.99797  -0.91592  -0.89689
 Alpha  occ. eigenvalues --   -0.88323  -0.86578  -0.81659  -0.78616  -0.75024
 Alpha  occ. eigenvalues --   -0.74079  -0.72868  -0.72728  -0.69952  -0.68316
 Alpha  occ. eigenvalues --   -0.67620  -0.65732  -0.63561  -0.61524  -0.60564
 Alpha  occ. eigenvalues --   -0.60159  -0.60018  -0.57554  -0.56821  -0.56613
 Alpha  occ. eigenvalues --   -0.56488  -0.55937  -0.54568  -0.54425  -0.54405
 Alpha  occ. eigenvalues --   -0.54064  -0.52546  -0.51574  -0.49803  -0.49609
 Alpha  occ. eigenvalues --   -0.47115  -0.46371  -0.44384  -0.43922  -0.43220
 Alpha  occ. eigenvalues --   -0.43076  -0.41780  -0.41320  -0.40908  -0.40782
 Alpha  occ. eigenvalues --   -0.38927  -0.38635  -0.37743  -0.34249  -0.30747
 Alpha virt. eigenvalues --   -0.03421  -0.00878   0.00010   0.01698   0.02021
 Alpha virt. eigenvalues --    0.02645   0.02927   0.03364   0.03675   0.04129
 Alpha virt. eigenvalues --    0.04519   0.04828   0.05616   0.06134   0.06641

 Mulliken charges:
               1
     1  C   -0.596334
     2  N   -0.472767
     3  C    0.063032
     4  O   -0.310445
     5  O   -0.057212
     6  C   -0.342006
     7  C   -0.142790
     8  C   -1.046517
     9  C   -0.147783
    10  C   -0.260628
    11  C    0.027451
    12  C   -0.168540
    13  C   -0.511870
    14  H    0.430484
    15  H    0.276863
    16  H    0.276659
    17  H    0.263340
    18  H    0.263822
    19  H    0.264966
    20  H    0.279254
    21  H    0.264944
    22  H    0.316107
    23  C    0.015496
    24  H    0.314439
    25  H    0.266129
    26  F   -0.037629
    27  F   -0.066472
    28  F   -0.036393
    29  S    0.747798
    30  O   -0.090990
    31  O   -0.099207
    32  H    0.316801
 Sum of Mulliken charges =  -0.00000

 Dipole moment (field-independent basis, Debye):
    X=              8.6375    Y=              2.3393    Z=              2.7218  Tot=              9.3535
 Quadrupole moment (field-independent basis, Debye-Ang):
   XX=           -123.5149   YY=           -121.4487   ZZ=           -128.0166
   XY=              7.3349   XZ=             -5.8879   YZ=              1.2382

  Exact polarizability: 274.439  -3.897 170.503   9.369  14.997 130.505
 Approx polarizability: 240.969  -3.760 212.131  10.540  23.031 154.131

                      1                      2                      3
                      A                      A                      A
 Frequencies --     18.1871                22.1344                36.6121
 Red. masses --      5.7381                 3.6929                14.3288
 Frc consts  --      0.0011                 0.0011                 0.0113
 IR Inten    --      0.8434                 1.2568                 0.0073

                      4                      5                      6
                      A                      A                      A
 Frequencies --     47.2534                52.3269                62.4420
 Red. masses --      6.6826                 2.8381                 5.1741
 Frc consts  --      0.0088                 0.0046                 0.0119
 IR Inten    --      0.0036                 0.1272                 0.3270

                      7                      8                      9
                      A                      A                      A
 Frequencies --     77.4382                81.8657               137.4953
 Red. masses --      3.1552                 5.0181                 6.6466
 Frc consts  --      0.0111                 0.0198                 0.0740
 IR Inten    --      4.4006                 0.1464                 3.7289

                     10                     11                     12
                      A                      A                      A
 Frequencies --    148.3680               181.3779               188.7677
 Red. masses --      4.5522                 4.3249                 8.0646
 Frc consts  --      0.0590                 0.0838                 0.1693
 IR Inten    --      5.2429                 2.5379                 3.3846

                     13                     14                     15
                      A                      A                      A
 Frequencies --    197.5149               219.2344               239.6128
 Red. masses --     13.9743                 5.3135                 1.1462
 Frc consts  --      0.3212                 0.1505                 0.0388
 IR Inten    --      1.9517                 2.1434                 0.2126

                     16                     17                     18
                      A                      A                      A
 Frequencies --    255.3733               306.9193               309.6577
 Red. masses --     10.4260                 7.8296                13.8219
 Frc consts  --      0.4006                 0.4345                 0.7809
 IR Inten    --      8.9740                 1.5000                 0.3311

                     19                     20                     21
                      A                      A                      A
 Frequencies --    331.1417               352.0554               358.9252
 Red. masses --      6.4313                 5.0612                 8.2046
 Frc consts  --      0.4155                 0.3696                 0.6228
 IR Inten    --      2.2697                14.8162                 9.8042

                     22                     23                     24
                      A                      A                      A
 Frequencies --    380.0420               420.1552               448.1321
 Red. masses --      7.9460                 3.0210                 8.0546
 Frc consts  --      0.6762                 0.3142                 0.9530
 IR Inten    --     17.6105                 0.0613                 3.8185

                     25                     26                     27
                      A                      A                      A
 Frequencies --    481.7151               515.7363               531.2651
 Red. masses --      5.7689                 3.3735                12.1371
 Frc consts  --      0.7887                 0.5287                 2.0183
 IR Inten    --     35.2408                 3.7539                31.6204

                     28                     29                     30
                      A                      A                      A
 Frequencies --    564.7388               565.5000               580.3590
 Red. masses --      1.1471                15.0639                 7.8501
 Frc consts  --      0.2155                 2.8383                 1.5578
 IR Inten    --     73.4490                 0.7900                94.1110

                     31                     32                     33
                      A                      A                      A
 Frequencies --    611.4811               638.7193               716.2808
 Red. masses --      9.8853                 7.1787                 6.6363
 Frc consts  --      2.1777                 1.7255                 2.0061
 IR Inten    --    233.0842                 1.0806               104.5429

                     34                     35                     36
                      A                      A                      A
 Frequencies --    730.4240               766.0302               783.7631
 Red. masses --      4.1287                 1.1232                12.7250
 Frc consts  --      1.2978                 0.3883                 4.6055
 IR Inten    --     14.6322                 8.2763                 3.6838

                     37                     38                     39
                      A                      A                      A
 Frequencies --    790.8633               791.9456               846.0092
 Red. masses --      8.6185                 8.6100                 1.3842
 Frc consts  --      3.1760                 3.1816                 0.5837
 IR Inten    --     11.8301                28.8180                21.9200

                     40                     41                     42
                      A                      A                      A
 Frequencies --    867.5093               873.9755               906.8483
 Red. masses --      1.4652                 5.2261                 1.1539
 Frc consts  --      0.6497                 2.3519                 0.5591
 IR Inten    --     38.1339                15.5261                 2.9991

                     43                     44                     45
                      A                      A                      A
 Frequencies --    935.9717               986.5726              1009.4765
 Red. masses --      1.6314                 1.3146                 1.3368
 Frc consts  --      0.8420                 0.7539                 0.8026
 IR Inten    --     15.5377                 1.2429                 0.7453

                     46                     47                     48
                      A                      A                      A
 Frequencies --   1024.9154              1027.1925              1076.7335
 Red. masses --      5.9114                 4.1508                 2.5064
 Frc consts  --      3.6586                 2.5804                 1.7121
 IR Inten    --     18.8739                 7.7657                 4.2777

                     49                     50                     51
                      A                      A                      A
 Frequencies --   1096.2259              1119.7784              1151.9355
 Red. masses --      4.7466                 5.5651                 3.5433
 Frc consts  --      3.3607                 4.1114                 2.7702
 IR Inten    --    165.8056               273.1144               363.0698

                     52                     53                     54
                      A                      A                      A
 Frequencies --   1163.4058              1170.8807              1195.5325
 Red. masses --      1.4667                 2.1287                 1.6563
 Frc consts  --      1.1696                 1.7195                 1.3948
 IR Inten    --     14.3899                 4.2074                 1.0764

                     55                     56                     57
                      A                      A                      A
 Frequencies --   1213.4151              1230.4443              1251.6460
 Red. masses --      1.9490                 2.6904                13.1078
 Frc consts  --      1.6908                 2.3999                12.0988
 IR Inten    --    282.9478                81.5449               187.8988

                     58                     59                     60
                      A                      A                      A
 Frequencies --   1263.1978              1268.6033              1293.5092
 Red. masses --      9.3976                 2.6433                 1.1849
 Frc consts  --      8.8350                 2.5063                 1.1680
 IR Inten    --    761.6930               482.1190                 1.2756

                     61                     62                     63
                      A                      A                      A
 Frequencies --   1311.7739              1338.9748              1341.5564
 Red. masses --      4.6341                 1.0741                 1.4201
 Frc consts  --      4.6982                 1.1346                 1.5059
 IR Inten    --    215.8228                 1.2742                22.8181

                     64                     65                     66
                      A                      A                      A
 Frequencies --   1349.2453              1357.6115              1369.2387
 Red. masses --      1.4569                 7.3960                 6.1813
 Frc consts  --      1.5626                 8.0316                 6.8279
 IR Inten    --      9.6801               192.6972               288.3790

                     67                     68                     69
                      A                      A                      A
 Frequencies --   1433.1758              1443.9058              1460.2562
 Red. masses --      1.2762                 1.5714                 2.7847
 Frc consts  --      1.5444                 1.9303                 3.4985
 IR Inten    --      5.6893                28.2687               114.5096

                     70                     71                     72
                      A                      A                      A
 Frequencies --   1503.1263              1519.6004              1520.5005
 Red. masses --      1.0633                 1.0461                 1.0753
 Frc consts  --      1.4154                 1.4232                 1.4647
 IR Inten    --      1.5126                10.1741                 3.2074

                     73                     74                     75
                      A                      A                      A
 Frequencies --   1533.5705              1548.2526              1588.5323
 Red. masses --      1.0949                 2.3089                 2.3963
 Frc consts  --      1.5172                 3.2609                 3.5627
 IR Inten    --     38.0832                 9.6920               884.9503

                     76                     77                     78
                      A                      A                      A
 Frequencies --   1658.8745              1670.4551              1843.5292
 Red. masses --      4.6202                 5.0416                10.1874
 Frc consts  --      7.4910                 8.2888                20.3993
 IR Inten    --    267.5378                66.6026               373.9958

                     79                     80                     81
                      A                      A                      A
 Frequencies --   3071.4140              3080.2243              3093.8027
 Red. masses --      1.0380                 1.0600                 1.0574
 Frc consts  --      5.7691                 5.9256                 5.9634
 IR Inten    --     21.7052                11.7652                34.8297

                     82                     83                     84
                      A                      A                      A
 Frequencies --   3113.7481              3136.3563              3150.4463
 Red. masses --      1.1042                 1.1055                 1.1080
 Frc consts  --      6.3078                 6.4069                 6.4795
 IR Inten    --      0.2186                 6.4237                61.6523

                     85                     86                     87
                      A                      A                      A
 Frequencies --   3150.8305              3215.3670              3234.1827
 Red. masses --      1.1019                 1.0902                 1.0922
 Frc consts  --      6.4454                 6.6409                 6.7308
 IR Inten    --     29.4888                 3.8966                 1.9379

                     88                     89                     90
                      A                      A                      A
 Frequencies --   3235.5974              3288.0724              3634.9494
 Red. masses --      1.0953                 1.0929                 1.0773
 Frc consts  --      6.7563                 6.9617                 8.3865
 IR Inten    --      3.7967                 9.8740                84.9736

 - Thermochemistry -
 -------------------
 Temperature   298.150 Kelvin.  Pressure   1.00000 Atm.
 Atom     1 has atomic number  6 and mass  12.00000

 Molecular mass:   311.04391 amu.
 Principal axes and moments of inertia in atomic units:
                           1         2         3
     Eigenvalues --  1731.37635********************
           X            0.99997  -0.00468   0.00538
           Y            0.00348   0.97879   0.20482
           Z           -0.00623  -0.20480   0.97878
 This molecule is an asymmetric top.
 Rotational symmetry number  1.
 Warning -- assumption of classical behavior for rotation
           may cause significant error
 Rotational temperatures (Kelvin)      0.05003     0.00460     0.00457
 Rotational constants (GHZ):           1.04237     0.09580     0.09515
 Zero-point vibrational energy     616751.5 (Joules/Mol)
                                  147.40715 (Kcal/Mol)
 Warning -- explicit consideration of  31 degrees of freedom as
           vibrations may cause significant error
 Vibrational temperatures:     26.17    31.85    52.68    67.99    75.29
          (Kelvin)             89.84   111.42   117.79   197.82   213.47
                              260.96   271.59   284.18   315.43   344.75
                              367.42   441.59   445.53   476.44   506.53
                              516.41   546.79   604.51   644.76   693.08
                              742.03   764.37   812.53   813.63   835.01
                              879.78   918.97  1030.57  1050.92  1102.15
                             1127.66  1137.87  1139.43  1217.22  1248.15
                             1257.45  1304.75  1346.65  1419.46  1452.41
                             1474.62  1477.90  1549.18  1577.22  1611.11
                             1657.38  1673.88  1684.63  1720.10  1745.83
                             1770.33  1800.84  1817.46  1825.23  1861.07
                             1887.35  1926.48  1930.20  1941.26  1953.30
                             1970.03  2062.02  2077.46  2100.98  2162.66
                             2186.36  2187.66  2206.46  2227.59  2285.54
                             2386.75  2403.41  2652.42  4419.07  4431.75
                             4451.29  4479.98  4512.51  4532.78  4533.34
                             4626.19  4653.26  4655.30  4730.80  5229.87

 Zero-point correction=                           0.234908 (Hartree/Particle)
 Thermal correction to Energy=                    0.254570
 Thermal correction to Enthalpy=                  0.255514
 Thermal correction to Gibbs Free Energy=         0.182940
 Sum of electronic and zero-point Energies=          -1479.389127
 Sum of electronic and thermal Energies=             -1479.369465
 Sum of electronic and thermal Enthalpies=           -1479.368521
 Sum of electronic and thermal Free Energies=        -1479.441095

                     E (Thermal)             CV                S
                      KCal/Mol        Cal/Mol-Kelvin    Cal/Mol-Kelvin
 Total                  159.745             70.469            152.745
 Electronic               0.000              0.000              0.000
 Translational            0.889              2.981             43.101
 Rotational               0.889              2.981             34.780
 Vibrational            157.968             64.507             74.864
 Vibration     1          0.593              1.986              6.823
 Vibration     2          0.593              1.985              6.433
 Vibration     3          0.594              1.982              5.434
 Vibration     4          0.595              1.979              4.929
 Vibration     5          0.596              1.977              4.727
 Vibration     6          0.597              1.972              4.378
 Vibration     7          0.599              1.964              3.955
 Vibration     8          0.600              1.962              3.846
 Vibration     9          0.614              1.916              2.838
 Vibration    10          0.618              1.904              2.693
 Vibration    11          0.630              1.865              2.314
 Vibration    12          0.633              1.855              2.240
 Vibration    13          0.637              1.843              2.156
 Vibration    14          0.647              1.812              1.965
 Vibration    15          0.657              1.780              1.806
 Vibration    16          0.666              1.754              1.693
 Vibration    17          0.697              1.661              1.379
 Vibration    18          0.699              1.655              1.364
 Vibration    19          0.714              1.613              1.255
 Vibration    20          0.729              1.571              1.157
 Vibration    21          0.734              1.557              1.127
 Vibration    22          0.750              1.513              1.039
 Vibration    23          0.783              1.426              0.891
 Vibration    24          0.807              1.365              0.801
 Vibration    25          0.838              1.291              0.705
 Vibration    26          0.871              1.215              0.620
 Vibration    27          0.886              1.181              0.584
 Vibration    28          0.921              1.108              0.514
 Vibration    29          0.921              1.106              0.513
 Vibration    30          0.937              1.074              0.485
 Vibration    31          0.971              1.008              0.430

 Optimization completed.
    -- Stationary point found.
 Normal termination of Gaussian 09 at Tue Nov 19 13:50:38 2019.
