 Q-Chem 5.0, Q-Chem, Inc., Pleasanton, CA (2017)
 Q-Chem 5.0.0 for Intel X86 EM64T Linux

User input:
--------------------------------------------------------------
$molecule
  0 1
    C     -6.0635807212    1.3542496482    0.3272924859
    N     -4.7938026145    0.7948202192    0.1963291461
    C     -3.5875129536    1.4529506957    0.1100083698
    O     -3.4209036541    2.6433882887    0.1277832085
    O     -2.6084719663    0.5429357990    0.0007516720
    C     -1.2777566449    1.0770033745   -0.0997123396
    C     -0.3208903830   -0.0902293711   -0.2073466220
    C      1.1213272101    0.3969987839   -0.3179395529
    C     -6.2905409748    2.7357647924    0.3940812289
    C     -7.5878632977    3.2056399824    0.5270793799
    C     -8.6465887735    2.3066293632    0.5927040637
    C     -8.4372514966    0.9312987539    0.5294873348
    C     -7.1453956881    0.4621849053    0.3979313898
    H     -4.7326646931   -0.2123906061    0.1633643071
    H     -1.0766942190    1.6869352244    0.7842326607
    H     -1.2258345129    1.7276070679   -0.9760062010
    H     -0.5883893103   -0.6911117196   -1.0807177899
    H     -0.4407187989   -0.7307282757    0.6706039631
    H      1.2620973218    1.0234478249   -1.2020332148
    H      1.8128573624   -0.4428268606   -0.3940394764
    H      1.4096608105    0.9856037852    0.5562996529
    H     -5.4617342307    3.4249202312    0.3475547454
    C    -10.7750630882    3.1114294259   -1.0672188869
    H     -9.2767097459    0.2491244509    0.5959053562
    H     -6.9640375505   -0.6066589381    0.3542437000
    F    -10.7028406676    1.9392798465   -1.6850585440
    F    -12.0127500047    3.5676472414   -1.1344862324
    F     -9.9563254832    3.9651037789   -1.6668835506
    S    -10.2923804446    2.9171140092    0.7255936529
    O    -10.2770332287    4.2614028654    1.2603651205
    O    -11.1584857299    1.8772018272    1.2390629126
    H     -7.7801518283    4.2704335856    0.5921680595

$end

$rem

    JOBTYPE               sp
    METHOD                CCSD(T)
    BASIS                 6-31+G*
    CC_BACKEND            XM

    MEM_TOTAL             60000
$end
--------------------------------------------------------------

             Standard Nuclear Orientation (Angstroms)
    I     Atom           X                Y                Z
 ----------------------------------------------------------------
    1      C       0.9444017983    -0.5427405691     0.1382764821
    2      N       2.3085245163    -0.7272444183    -0.0798442705
    3      C       3.3262319157     0.1747164231     0.1357016324
    4      O       3.2095907638     1.2968185005     0.5510304611
    5      O       4.4900335328    -0.4033524040    -0.1959421828
    6      C       5.6576145950     0.4175227859    -0.0255225674
    7      C       6.8601121865    -0.4017157709    -0.4408034290
    8      C       8.1469584630     0.4045960103    -0.2875010178
    9      C       0.4008911526     0.6499506553     0.6349047211
   10      C      -0.9690159758     0.7455571749     0.8239292295
   11      C      -1.7870634305    -0.3371547905     0.5206810020
   12      C      -1.2620979027    -1.5293154651     0.0282209977
   13      C       0.1023309341    -1.6259285280    -0.1595716136
   14      H       2.6035091101    -1.6253946177    -0.4342571388
   15      H       5.7189599812     0.7277246941     1.0203327017
   16      H       5.5470811575     1.3163647900    -0.6368632384
   17      H       6.7321661747    -0.7220266363    -1.4783116156
   18      H       6.9022810412    -1.3070667423     0.1707162618
   19      H       8.1283775757     1.3038080899    -0.9079432913
   20      H       9.0151486198    -0.1846070528    -0.5848188026
   21      H       8.2980424814     0.7180387020     0.7482661375
   22      H       1.0447587260     1.4825289177     0.8721146204
   23      C      -4.0610939004     0.4747169429    -0.9295258665
   24      H      -1.9177588625    -2.3644929225    -0.1886905192
   25      H       0.5285144190    -2.5500451141    -0.5358729856
   26      F      -3.7224782270    -0.3777551957    -1.8884352653
   27      F      -5.3718046454     0.6377071231    -0.9297218779
   28      F      -3.4710009569     1.6395369780    -1.1612012420
   29      S      -3.5286620201    -0.1907719104     0.7313650683
   30      O      -3.8232799402     0.8666335054     1.6739268203
   31      O      -4.1220391811    -1.5082000612     0.8179272098
   32      H      -1.4046656725     1.6564036993     1.2183462466
 ----------------------------------------------------------------

   16   -1473.2446173858      4.66E-09 Convergence criterion met
 Total energy in the final basis set = -1473.2446173858
 CCSD total energy           = -1476.28230925
 CCSD(T) total energy       = -1476.39757691

                    Orbital Energies (a.u.)
 --------------------------------------------------------------

 Alpha MOs
 -- Occupied --
-92.223 -26.386 -26.386 -26.384 -20.638 -20.587 -20.587 -20.575
-15.645 -11.554 -11.443 -11.340 -11.308 -11.293 -11.292 -11.290
-11.275 -11.264 -11.247 -11.237  -9.198  -6.884  -6.883  -6.883
 -1.772  -1.674  -1.674  -1.502  -1.484  -1.394  -1.373  -1.300
 -1.196  -1.097  -1.076  -1.064  -1.030  -0.974  -0.937  -0.895
 -0.883  -0.859  -0.859  -0.842  -0.824  -0.806  -0.780  -0.756
 -0.743  -0.740  -0.722  -0.717  -0.698  -0.695  -0.689  -0.678
 -0.675  -0.671  -0.656  -0.649  -0.648  -0.634  -0.624  -0.600
 -0.593  -0.568  -0.555  -0.544  -0.534  -0.526  -0.521  -0.509
 -0.508  -0.498  -0.487  -0.484  -0.483  -0.465  -0.378  -0.352

          Ground-State Mulliken Net Atomic Charges

     Atom                 Charge (a.u.)
  ----------------------------------------
      1 C                     0.227750
      2 N                    -0.920845
      3 C                     0.758136
      4 O                    -0.579714
      5 O                    -0.475668
      6 C                     0.044990
      7 C                    -0.280336
      8 C                    -0.690083
      9 C                     0.044333
     10 C                     0.072292
     11 C                    -0.353439
     12 C                    -0.128941
     13 C                    -1.083891
     14 H                     0.501092
     15 H                     0.213339
     16 H                     0.212829
     17 H                     0.204853
     18 H                     0.205079
     19 H                     0.196911
     20 H                     0.205365
     21 H                     0.196983
     22 H                     0.318586
     23 C                     1.123088
     24 H                     0.297538
     25 H                     0.241638
     26 F                    -0.362545
     27 F                    -0.367719
     28 F                    -0.358399
     29 S                     1.498455
     30 O                    -0.625344
     31 O                    -0.634633
     32 H                     0.298302
  ----------------------------------------
  Sum of atomic charges =     0.000000

                    Cartesian Multipole Moments
 -----------------------------------------------------------------
    Charge (ESU x 10^10)
                -0.0000
    Dipole Moment (Debye)
         X       7.9356      Y      -2.0617      Z      -2.6265
       Tot       8.6094
    Quadrupole Moments (Debye-Ang)
        XX    -124.5107     XY      -7.0490     YY    -122.9701
        XZ       5.9458     YZ       1.0994     ZZ    -128.6415

 Total job time:  255986.04s(wall), 927169.00s(cpu)
        *  Thank you very much for using Q-Chem.  Have a nice day.  *
