 Gaussian 09, Revision E.01,
 Gaussian 09:  ES64L-G09RevE.01 30-Nov-2015

 -------------------------------------------------------------
 # MP2/Gen 5D SCF=Tight INT(grid=ultrafine) maxdisk=3489660928
 -------------------------------------------------------------

 ---------------------
 CP21CA.MP2_GTMP2LARGE
 ---------------------
 Symbolic Z-matrix:
 Charge =  0 Multiplicity = 1

                         Standard orientation:
 ---------------------------------------------------------------------
 Center     Atomic      Atomic             Coordinates (Angstroms)
 Number     Number       Type             X           Y           Z
 ---------------------------------------------------------------------
      1          6           0        0.944402    0.542741   -0.138276
      2          7           0        2.308525    0.727244    0.079844
      3          6           0        3.326232   -0.174716   -0.135702
      4          8           0        3.209591   -1.296819   -0.551030
      5          8           0        4.490034    0.403352    0.195942
      6          6           0        5.657615   -0.417523    0.025523
      7          6           0        6.860112    0.401716    0.440803
      8          6           0        8.146958   -0.404596    0.287501
      9          6           0        0.400891   -0.649951   -0.634905
     10          6           0       -0.969016   -0.745557   -0.823929
     11          6           0       -1.787063    0.337155   -0.520681
     12          6           0       -1.262098    1.529315   -0.028221
     13          6           0        0.102331    1.625929    0.159572
     14          1           0        2.603509    1.625395    0.434257
     15          1           0        5.718960   -0.727725   -1.020333
     16          1           0        5.547081   -1.316365    0.636863
     17          1           0        6.732166    0.722027    1.478312
     18          1           0        6.902281    1.307067   -0.170716
     19          1           0        8.128378   -1.303808    0.907943
     20          1           0        9.015149    0.184607    0.584819
     21          1           0        8.298042   -0.718039   -0.748266
     22          1           0        1.044759   -1.482529   -0.872115
     23          6           0       -4.061094   -0.474717    0.929526
     24          1           0       -1.917759    2.364493    0.188691
     25          1           0        0.528514    2.550045    0.535873
     26          9           0       -3.722478    0.377755    1.888435
     27          9           0       -5.371805   -0.637707    0.929722
     28          9           0       -3.471001   -1.639537    1.161201
     29         16           0       -3.528662    0.190772   -0.731365
     30          8           0       -3.823280   -0.866634   -1.673927
     31          8           0       -4.122039    1.508200   -0.817927
     32          1           0       -1.404666   -1.656404   -1.218346
 ---------------------------------------------------------------------

 SCF Done:  E(RHF) =  -1473.65526557     A.U. after   17 cycles
 E2 =    -0.3810971127D+01 EUMP2 =    -0.14774662366929D+04

 The electronic state is 1-A.
 Alpha  occ. eigenvalues --  -92.19612 -26.36836 -26.36809 -26.36593 -20.62367
 Alpha  occ. eigenvalues --  -20.57205 -20.57178 -20.55780 -15.63296 -11.53993
 Alpha  occ. eigenvalues --  -11.43230 -11.33363 -11.30194 -11.28508 -11.28342
 Alpha  occ. eigenvalues --  -11.28179 -11.26652 -11.25596 -11.24148 -11.23184
 Alpha  occ. eigenvalues --   -9.16677  -6.85292  -6.85218  -6.85182  -1.76371
 Alpha  occ. eigenvalues --   -1.66664  -1.66622  -1.49703  -1.47287  -1.38944
 Alpha  occ. eigenvalues --   -1.36459  -1.29663  -1.19094  -1.09314  -1.07055
 Alpha  occ. eigenvalues --   -1.06015  -1.02454  -0.97020  -0.93096  -0.89136
 Alpha  occ. eigenvalues --   -0.87809  -0.85449  -0.85439  -0.83829  -0.82057
 Alpha  occ. eigenvalues --   -0.80182  -0.77697  -0.75309  -0.73908  -0.73644
 Alpha  occ. eigenvalues --   -0.71776  -0.71581  -0.69438  -0.69227  -0.68637
 Alpha  occ. eigenvalues --   -0.67562  -0.66845  -0.66755  -0.65264  -0.64758
 Alpha  occ. eigenvalues --   -0.64521  -0.63078  -0.62211  -0.59659  -0.59236
 Alpha  occ. eigenvalues --   -0.56661  -0.55363  -0.54125  -0.53214  -0.52542
 Alpha  occ. eigenvalues --   -0.52179  -0.50836  -0.50593  -0.49948  -0.48613
 Alpha  occ. eigenvalues --   -0.48363  -0.48212  -0.46476  -0.37781  -0.35187
 Alpha virt. eigenvalues --    0.02701   0.03657   0.04778   0.05162   0.05251
 Alpha virt. eigenvalues --    0.05867   0.06243   0.07102   0.07995   0.08107
 Alpha virt. eigenvalues --    0.08627   0.08720   0.09295   0.09629   0.10156

 Mulliken charges:
               1
     1  C    0.249401
     2  N   -0.417840
     3  C    0.467172
     4  O   -0.447637
     5  O   -0.214615
     6  C    0.095775
     7  C    0.268868
     8  C   -0.445804
     9  C   -0.496220
    10  C   -0.148654
    11  C    0.071074
    12  C   -0.266201
    13  C   -0.352855
    14  H    0.228495
    15  H    0.103809
    16  H    0.103771
    17  H    0.048339
    18  H    0.048370
    19  H    0.058600
    20  H    0.091355
    21  H    0.058753
    22  H    0.245520
    23  C    0.804103
    24  H    0.233862
    25  H    0.121773
    26  F   -0.256254
    27  F   -0.270077
    28  F   -0.254700
    29  S    1.251832
    30  O   -0.608198
    31  O   -0.600642
    32  H    0.228825
 Sum of Mulliken charges =  -0.00000

 Dipole moment (field-independent basis, Debye):
    X=              7.9791    Y=              2.0873    Z=              2.5401  Tot=              8.6299
 Quadrupole moment (field-independent basis, Debye-Ang):
   XX=           -123.5806   YY=           -121.8866   ZZ=           -127.5086
   XY=              7.0091   XZ=             -5.5669   YZ=              1.1165

 Normal termination of Gaussian 09 at Mon Dec  9 12:40:12 2019.
