 Gaussian 09, Revision E.01,
 Gaussian 09:  ES64L-G09RevE.01 30-Nov-2015

 -------------------------------------------------------------
 # MP2/Gen 6D SCF=Tight INT(grid=ultrafine) maxdisk=3489660928
 -------------------------------------------------------------

 ------------------
 CP21CA.MP2_6-31pGd
 ------------------
 Symbolic Z-matrix:
 Charge =  0 Multiplicity = 1

                         Standard orientation:
 ---------------------------------------------------------------------
 Center     Atomic      Atomic             Coordinates (Angstroms)
 Number     Number       Type             X           Y           Z
 ---------------------------------------------------------------------
      1          6           0        0.944402    0.542741   -0.138276
      2          7           0        2.308525    0.727244    0.079844
      3          6           0        3.326232   -0.174716   -0.135702
      4          8           0        3.209591   -1.296819   -0.551030
      5          8           0        4.490034    0.403352    0.195942
      6          6           0        5.657615   -0.417523    0.025523
      7          6           0        6.860112    0.401716    0.440803
      8          6           0        8.146958   -0.404596    0.287501
      9          6           0        0.400891   -0.649951   -0.634905
     10          6           0       -0.969016   -0.745557   -0.823929
     11          6           0       -1.787063    0.337155   -0.520681
     12          6           0       -1.262098    1.529315   -0.028221
     13          6           0        0.102331    1.625929    0.159572
     14          1           0        2.603509    1.625395    0.434257
     15          1           0        5.718960   -0.727725   -1.020333
     16          1           0        5.547081   -1.316365    0.636863
     17          1           0        6.732166    0.722027    1.478312
     18          1           0        6.902281    1.307067   -0.170716
     19          1           0        8.128378   -1.303808    0.907943
     20          1           0        9.015149    0.184607    0.584819
     21          1           0        8.298042   -0.718039   -0.748266
     22          1           0        1.044759   -1.482529   -0.872115
     23          6           0       -4.061094   -0.474717    0.929526
     24          1           0       -1.917759    2.364493    0.188691
     25          1           0        0.528514    2.550045    0.535873
     26          9           0       -3.722478    0.377755    1.888435
     27          9           0       -5.371805   -0.637707    0.929722
     28          9           0       -3.471001   -1.639537    1.161201
     29         16           0       -3.528662    0.190772   -0.731365
     30          8           0       -3.823280   -0.866634   -1.673927
     31          8           0       -4.122039    1.508200   -0.817927
     32          1           0       -1.404666   -1.656404   -1.218346
 ---------------------------------------------------------------------

 SCF Done:  E(RHF) =  -1473.24461740     A.U. after   18 cycles
 E2 =    -0.2969257007D+01 EUMP2 =    -0.14762138744087D+04

 The electronic state is 1-A.
 Alpha  occ. eigenvalues --  -92.22350 -26.38650 -26.38621 -26.38396 -20.63828
 Alpha  occ. eigenvalues --  -20.58743 -20.58713 -20.57523 -15.64489 -11.55381
 Alpha  occ. eigenvalues --  -11.44340 -11.34025 -11.30789 -11.29343 -11.29222
 Alpha  occ. eigenvalues --  -11.28992 -11.27452 -11.26350 -11.24660 -11.23701
 Alpha  occ. eigenvalues --   -9.19820  -6.88403  -6.88347  -6.88300  -1.77181
 Alpha  occ. eigenvalues --   -1.67408  -1.67372  -1.50222  -1.48434  -1.39443
 Alpha  occ. eigenvalues --   -1.37274  -1.30028  -1.19551  -1.09713  -1.07569
 Alpha  occ. eigenvalues --   -1.06393  -1.03032  -0.97401  -0.93652  -0.89528
 Alpha  occ. eigenvalues --   -0.88265  -0.85909  -0.85893  -0.84154  -0.82368
 Alpha  occ. eigenvalues --   -0.80620  -0.78015  -0.75618  -0.74287  -0.74008
 Alpha  occ. eigenvalues --   -0.72233  -0.71700  -0.69761  -0.69540  -0.68885
 Alpha  occ. eigenvalues --   -0.67822  -0.67451  -0.67132  -0.65584  -0.64907
 Alpha  occ. eigenvalues --   -0.64760  -0.63378  -0.62431  -0.60026  -0.59339
 Alpha  occ. eigenvalues --   -0.56845  -0.55483  -0.54399  -0.53423  -0.52556
 Alpha  occ. eigenvalues --   -0.52089  -0.50941  -0.50797  -0.49838  -0.48666
 Alpha  occ. eigenvalues --   -0.48420  -0.48291  -0.46505  -0.37829  -0.35219
 Alpha virt. eigenvalues --    0.04854   0.06161   0.07282   0.07552   0.08185
 Alpha virt. eigenvalues --    0.08519   0.08786   0.08855   0.09575   0.09914
 Alpha virt. eigenvalues --    0.10299   0.10471   0.11539   0.12009   0.12431

 Mulliken charges:
               1
     1  C    0.227749
     2  N   -0.920844
     3  C    0.758138
     4  O   -0.579714
     5  O   -0.475668
     6  C    0.044987
     7  C   -0.280335
     8  C   -0.690083
     9  C    0.044335
    10  C    0.072290
    11  C   -0.353442
    12  C   -0.128942
    13  C   -1.083886
    14  H    0.501092
    15  H    0.213339
    16  H    0.212829
    17  H    0.204853
    18  H    0.205079
    19  H    0.196911
    20  H    0.205365
    21  H    0.196983
    22  H    0.318586
    23  C    1.123089
    24  H    0.297538
    25  H    0.241637
    26  F   -0.362545
    27  F   -0.367719
    28  F   -0.358399
    29  S    1.498453
    30  O   -0.625344
    31  O   -0.634633
    32  H    0.298302
 Sum of Mulliken charges =  -0.00000

 Dipole moment (field-independent basis, Debye):
    X=              7.9356    Y=              2.0617    Z=              2.6265  Tot=              8.6094
 Quadrupole moment (field-independent basis, Debye-Ang):
   XX=           -124.5107   YY=           -122.9701   ZZ=           -128.6414
   XY=              7.0490   XZ=             -5.9458   YZ=              1.0994

 Normal termination of Gaussian 09 at Mon Dec  9 11:23:50 2019.
