 Gaussian 09, Revision E.01,

 ----------------------------------------------------------------------
 # M062X/6-311+G* SCF=Tight INT(grid=ultrafine) OPT IOP(2/17=4) Empiric
 alDispersion=GD3 SCRF=(SMD,Solvent=n-Pentadecane) maxdisk=2147483648
 ----------------------------------------------------------------------

 --------------------------------------------
 CP19CA_c2.M062X_6-311pGd_opt_Pentadecane_GD3
 --------------------------------------------
 Symbolic Z-matrix:
 Charge =  0 Multiplicity = 1

 SCF Done:  E(RM062X) =  -1390.68437490     A.U. after   16 cycles
 Optimization completed.
    -- Stationary point found.
 Normal termination of Gaussian 09 at Thu Nov 14 17:09:58 2019.
 Gaussian 09:  ES64L-G09RevE.01 30-Nov-2015

 ----------------------------------------------------------------------
 # M062X/6-311+G* SCF=Tight INT(grid=ultrafine) SCRF=(SMD,Solvent=n-Pen
 tadecane) EmpiricalDispersion=GD3 Freq=Noraman maxdisk=2147483648 geom
 =check guess=read IOP(2/17=4)
 ----------------------------------------------------------------------

 --------------------------------------------
 CP19CA_c2.M062X_6-311pGd_opt_Pentadecane_GD3
 --------------------------------------------
 Structure from the checkpoint file:  "CP19CA_c2.M062X_6-311pGd_opt_Pentadecane_GD3.chk"
 Charge =  0 Multiplicity = 1

                         Standard orientation:
 ---------------------------------------------------------------------
 Center     Atomic      Atomic             Coordinates (Angstroms)
 Number     Number       Type             X           Y           Z
 ---------------------------------------------------------------------
      1          6           0        0.254776    0.133739   -0.000226
      2          7           0        1.602606    0.494170   -0.000392
      3          6           0        2.692801   -0.341156   -0.000151
      4          8           0        2.669384   -1.545623    0.000110
      5          8           0        3.807301    0.401636   -0.000256
      6          6           0        5.046666   -0.329029    0.000017
      7          6           0        6.174384    0.679389    0.000088
      8          6           0        7.528572   -0.022484    0.000386
      9          6           0       -0.677162    1.179241   -0.000111
     10          6           0       -2.031238    0.905839   -0.000009
     11          6           0       -2.497774   -0.410176   -0.000010
     12          6           0       -1.561832   -1.438431   -0.000132
     13          6           0       -0.197395   -1.188425   -0.000248
     14          1           0        1.817065    1.481717   -0.000323
     15          1           0        5.077242   -0.969456   -0.884766
     16          1           0        5.076971   -0.969290    0.884927
     17          1           0        6.079153    1.321746    0.879901
     18          1           0        6.079439    1.321546   -0.879901
     19          1           0        7.648243   -0.655557    0.883325
     20          1           0        8.344031    0.702535    0.000422
     21          1           0        7.648520   -0.655786   -0.882352
     22          1           0       -0.344442    2.211090   -0.000124
     23         17           0       -3.133491    2.253148    0.000098
     24          6           0       -3.965592   -0.725609    0.000094
     25          1           0       -1.905380   -2.465208   -0.000143
     26          1           0        0.504337   -2.007526   -0.000321
     27          9           0       -4.185685   -2.048177    0.000105
     28          9           0       -4.595128   -0.230581    1.077500
     29          9           0       -4.595273   -0.230575   -1.077225
 ---------------------------------------------------------------------

 SCF Done:  E(RM062X) =  -1390.68437490     A.U. after    2 cycles

 The electronic state is 1-A.
 Alpha  occ. eigenvalues -- -102.69064 -25.28213 -25.27691 -25.27690 -19.67925
 Alpha  occ. eigenvalues --  -19.62031 -14.80809 -10.80870 -10.71622 -10.63478
 Alpha  occ. eigenvalues --  -10.62569 -10.59975 -10.58494 -10.57515 -10.57413
 Alpha  occ. eigenvalues --  -10.56050 -10.54210 -10.53097  -9.83345  -7.55865
 Alpha  occ. eigenvalues --   -7.55175  -7.55160  -1.47377  -1.38007  -1.37604
 Alpha  occ. eigenvalues --   -1.26074  -1.16140  -1.08473  -1.02082  -0.95684
 Alpha  occ. eigenvalues --   -0.91329  -0.89374  -0.85773  -0.82569  -0.79625
 Alpha  occ. eigenvalues --   -0.74711  -0.73766  -0.70065  -0.69664  -0.69202
 Alpha  occ. eigenvalues --   -0.68020  -0.66316  -0.65309  -0.61832  -0.59857
 Alpha  occ. eigenvalues --   -0.58045  -0.57899  -0.56885  -0.56038  -0.54769
 Alpha  occ. eigenvalues --   -0.54353  -0.53647  -0.53383  -0.52117  -0.51538
 Alpha  occ. eigenvalues --   -0.51302  -0.50739  -0.49935  -0.47538  -0.46407
 Alpha  occ. eigenvalues --   -0.45784  -0.44435  -0.43775  -0.43477  -0.41136
 Alpha  occ. eigenvalues --   -0.40962  -0.39435  -0.39306  -0.38606  -0.37701
 Alpha  occ. eigenvalues --   -0.32365  -0.30035
 Alpha virt. eigenvalues --   -0.01258  -0.00721   0.00314   0.01890   0.02145
 Alpha virt. eigenvalues --    0.02647   0.03350   0.03355   0.03911   0.05028
 Alpha virt. eigenvalues --    0.05047   0.05349   0.06228   0.06349   0.06726

 Mulliken charges:
               1
     1  C   -0.736319
     2  N   -0.483134
     3  C    0.050765
     4  O   -0.304514
     5  O   -0.058067
     6  C   -0.348379
     7  C   -0.143505
     8  C   -1.047663
     9  C   -0.565843
    10  C    0.985035
    11  C   -1.109546
    12  C   -0.067208
    13  C   -0.077774
    14  H    0.427957
    15  H    0.275462
    16  H    0.275458
    17  H    0.263266
    18  H    0.263265
    19  H    0.264602
    20  H    0.278823
    21  H    0.264601
    22  H    0.279850
    23  Cl   0.439282
    24  C    0.508321
    25  H    0.296855
    26  H    0.310878
    27  F   -0.144710
    28  F   -0.048879
    29  F   -0.048877
 Sum of Mulliken charges =  -0.00000

 Dipole moment (field-independent basis, Debye):
    X=              6.3802    Y=              1.9103    Z=             -0.0003  Tot=              6.6600
 Quadrupole moment (field-independent basis, Debye-Ang):
   XX=           -110.2193   YY=           -109.3801   ZZ=           -113.4229
   XY=              5.5700   XZ=              0.0009   YZ=              0.0013

  Exact polarizability: 242.508 -10.001 174.664  -0.004   0.000 106.886
 Approx polarizability: 217.250  -8.500 204.063  -0.005  -0.001 127.316

                      1                      2                      3
                      A                      A                      A
 Frequencies --     16.5716                24.1531                52.0228
 Red. masses --      3.0692                 4.8335                14.0617
 Frc consts  --      0.0005                 0.0017                 0.0224
 IR Inten    --      2.1217                 0.2611                 0.0343

                      4                      5                      6
                      A                      A                      A
 Frequencies --     59.4334                63.3692                79.6098
 Red. masses --      5.0957                 4.4113                 2.7397
 Frc consts  --      0.0106                 0.0104                 0.0102
 IR Inten    --      0.0277                 1.0104                 3.5285

                      7                      8                      9
                      A                      A                      A
 Frequencies --    107.5695               142.1756               169.7021
 Red. masses --      5.4382                 7.8135                10.7896
 Frc consts  --      0.0371                 0.0931                 0.1831
 IR Inten    --      0.7595                 2.7023                 0.8145

                     10                     11                     12
                      A                      A                      A
 Frequencies --    171.2553               183.6271               201.4076
 Red. masses --      3.5584                 5.3723                 6.9841
 Frc consts  --      0.0615                 0.1067                 0.1669
 IR Inten    --      2.0390                 2.6420                 0.7850

                     13                     14                     15
                      A                      A                      A
 Frequencies --    237.5368               244.2610               252.7249
 Red. masses --      1.3306                 3.7123                 6.6431
 Frc consts  --      0.0442                 0.1305                 0.2500
 IR Inten    --      0.1646                 0.3803                 2.2795

                     16                     17                     18
                      A                      A                      A
 Frequencies --    325.2322               342.8330               358.7555
 Red. masses --     15.3194                 5.5307                 5.5968
 Frc consts  --      0.9547                 0.3830                 0.4244
 IR Inten    --      1.0786                 7.8239                24.0429

                     19                     20                     21
                      A                      A                      A
 Frequencies --    422.8932               451.5752               457.2694
 Red. masses --      6.3915                 3.6600                 6.9055
 Frc consts  --      0.6735                 0.4397                 0.8507
 IR Inten    --      2.3432                 0.5156                 7.5711

                     22                     23                     24
                      A                      A                      A
 Frequencies --    473.1497               514.3140               543.3857
 Red. masses --      8.1131                 6.4246                 1.2636
 Frc consts  --      1.0701                 1.0013                 0.2198
 IR Inten    --      5.1329                25.3721                76.5332

                     25                     26                     27
                      A                      A                      A
 Frequencies --    565.7323               598.4371               630.6242
 Red. masses --      6.7567                11.1912                 3.5107
 Frc consts  --      1.2741                 2.3614                 0.8226
 IR Inten    --     17.5605                 2.8796                15.3141

                     28                     29                     30
                      A                      A                      A
 Frequencies --    662.0174               712.9186               740.5696
 Red. masses --      7.3182                 7.6687                 4.1915
 Frc consts  --      1.8897                 2.2964                 1.3544
 IR Inten    --      9.6768                10.2238                 0.5994

                     31                     32                     33
                      A                      A                      A
 Frequencies --    763.5299               778.9850               791.4210
 Red. masses --      1.1104                11.2788                 8.4580
 Frc consts  --      0.3814                 4.0325                 3.1213
 IR Inten    --      6.7915                 3.3970                19.2452

                     34                     35                     36
                      A                      A                      A
 Frequencies --    807.7802               867.0794               878.2825
 Red. masses --      8.6627                 1.3754                 1.6220
 Frc consts  --      3.3303                 0.6093                 0.7372
 IR Inten    --      1.3291                20.8949                67.2457

                     37                     38                     39
                      A                      A                      A
 Frequencies --    906.3024               917.4336               944.1614
 Red. masses --      1.1512                 2.9809                 2.1825
 Frc consts  --      0.5571                 1.4782                 1.1463
 IR Inten    --      2.8252                30.6618                30.2082

                     40                     41                     42
                      A                      A                      A
 Frequencies --   1001.6361              1028.4568              1045.0441
 Red. masses --      1.3236                 7.2750                 5.8987
 Frc consts  --      0.7824                 4.5337                 3.7956
 IR Inten    --      0.3918                28.7286                44.9156

                     43                     44                     45
                      A                      A                      A
 Frequencies --   1078.0218              1131.4867              1145.9944
 Red. masses --      2.4978                 6.2590                 2.6040
 Frc consts  --      1.7103                 4.7212                 2.0149
 IR Inten    --     13.8121                85.3850               389.3517

                     46                     47                     48
                      A                      A                      A
 Frequencies --   1169.3957              1175.8898              1182.8552
 Red. masses --      2.4774                 2.2556                12.8393
 Frc consts  --      1.9960                 1.8376                10.5841
 IR Inten    --     15.4231                93.1081               331.9184

                     49                     50                     51
                      A                      A                      A
 Frequencies --   1195.6281              1212.4418              1256.3030
 Red. masses --      1.6698                 2.2962                 2.1223
 Frc consts  --      1.4064                 1.9887                 1.9735
 IR Inten    --      1.0551               133.7908               626.8741

                     52                     53                     54
                      A                      A                      A
 Frequencies --   1294.2010              1294.9382              1328.9539
 Red. masses --      2.6884                 1.1829                 2.6772
 Frc consts  --      2.6531                 1.1687                 2.7858
 IR Inten    --    602.7478                 1.0875                49.0094

                     55                     56                     57
                      A                      A                      A
 Frequencies --   1341.9066              1349.1861              1354.2049
 Red. masses --      1.0640                 1.4372                 3.5244
 Frc consts  --      1.1289                 1.5414                 3.8081
 IR Inten    --      1.1937                15.0063               102.1056

                     58                     59                     60
                      A                      A                      A
 Frequencies --   1358.5054              1431.0139              1435.6915
 Red. masses --      3.8657                 1.3000                 2.2279
 Frc consts  --      4.2034                 1.5685                 2.7057
 IR Inten    --    302.6708                 0.7366               322.1204

                     61                     62                     63
                      A                      A                      A
 Frequencies --   1454.9966              1501.9011              1519.5130
 Red. masses --      1.8592                 1.0645                 1.0371
 Frc consts  --      2.3190                 1.4148                 1.4108
 IR Inten    --     85.6208                 1.0141                11.8697

                     64                     65                     66
                      A                      A                      A
 Frequencies --   1520.9186              1536.0690              1556.6199
 Red. masses --      1.0857                 1.1019                 2.8439
 Frc consts  --      1.4796                 1.5319                 4.0600
 IR Inten    --      2.6409                46.4208                32.6916

                     67                     68                     69
                      A                      A                      A
 Frequencies --   1589.7550              1655.6177              1685.0029
 Red. masses --      2.7027                 4.5170                 6.6237
 Frc consts  --      4.0245                 7.2949                11.0804
 IR Inten    --    705.1336               182.6049               224.4291

                     70                     71                     72
                      A                      A                      A
 Frequencies --   1839.9138              3071.3980              3079.8604
 Red. masses --     10.4362                 1.0379                 1.0598
 Frc consts  --     20.8156                 5.7688                 5.9230
 IR Inten    --    392.3651                21.6676                12.0527

                     73                     74                     75
                      A                      A                      A
 Frequencies --   3093.7543              3113.4532              3136.3598
 Red. masses --      1.0573                 1.1043                 1.1055
 Frc consts  --      5.9625                 6.3067                 6.4069
 IR Inten    --     36.2095                 0.2636                 6.6367

                     76                     77                     78
                      A                      A                      A
 Frequencies --   3150.4447              3150.8944              3223.2594
 Red. masses --      1.1083                 1.1017                 1.0926
 Frc consts  --      6.4811                 6.4446                 6.6882
 IR Inten    --     63.7158                27.9929                 1.0258

                     79                     80                     81
                      A                      A                      A
 Frequencies --   3246.2891              3292.7136              3639.6567
 Red. masses --      1.0914                 1.0930                 1.0777
 Frc consts  --      6.7768                 6.9821                 8.4117
 IR Inten    --      0.1546                 9.8782                72.0990

 - Thermochemistry -
 -------------------
 Temperature   298.150 Kelvin.  Pressure   1.00000 Atm.
 Atom     1 has atomic number  6 and mass  12.00000

 Molecular mass:   281.04304 amu.
 Principal axes and moments of inertia in atomic units:
                           1         2         3
     Eigenvalues --  1647.94950********************
           X            1.00000   0.00101   0.00000
           Y           -0.00101   1.00000   0.00000
           Z           -0.00000  -0.00000   1.00000
 This molecule is an asymmetric top.
 Rotational symmetry number  1.
 Warning -- assumption of classical behavior for rotation
           may cause significant error
 Rotational temperatures (Kelvin)      0.05256     0.00592     0.00544
 Rotational constants (GHZ):           1.09514     0.12336     0.11330
 Zero-point vibrational energy     564220.2 (Joules/Mol)
                                  134.85186 (Kcal/Mol)
 Warning -- explicit consideration of  26 degrees of freedom as
           vibrations may cause significant error
 Vibrational temperatures:     23.84    34.75    74.85    85.51    91.17
          (Kelvin)            114.54   154.77   204.56   244.16   246.40
                              264.20   289.78   341.76   351.44   363.61
                              467.94   493.26   516.17   608.45   649.72
                              657.91   680.76   739.98   781.81   813.96
                              861.02   907.33   952.49  1025.73  1065.51
                             1098.55  1120.78  1138.68  1162.21  1247.53
                             1263.65  1303.97  1319.98  1358.44  1441.13
                             1479.72  1503.58  1551.03  1627.95  1648.83
                             1682.50  1691.84  1701.86  1720.24  1744.43
                             1807.54  1862.06  1863.12  1912.07  1930.70
                             1941.18  1948.40  1954.58  2058.91  2065.64
                             2093.41  2160.90  2186.24  2188.26  2210.06
                             2239.63  2287.30  2382.06  2424.34  2647.22
                             4419.05  4431.23  4451.22  4479.56  4512.52
                             4532.78  4533.43  4637.55  4670.68  4737.47
                             5236.65

 Zero-point correction=                           0.214900 (Hartree/Particle)
 Thermal correction to Energy=                    0.232359
 Thermal correction to Enthalpy=                  0.233304
 Thermal correction to Gibbs Free Energy=         0.166176
 Sum of electronic and zero-point Energies=          -1390.469475
 Sum of electronic and thermal Energies=             -1390.452016
 Sum of electronic and thermal Enthalpies=           -1390.451071
 Sum of electronic and thermal Free Energies=        -1390.518199

                     E (Thermal)             CV                S
                      KCal/Mol        Cal/Mol-Kelvin    Cal/Mol-Kelvin
 Total                  145.808             62.580            141.282
 Electronic               0.000              0.000              0.000
 Translational            0.889              2.981             42.798
 Rotational               0.889              2.981             34.306
 Vibrational            144.030             56.619             64.178
 Vibration     1          0.593              1.986              7.008
 Vibration     2          0.593              1.985              6.260
 Vibration     3          0.596              1.977              4.739
 Vibration     4          0.597              1.974              4.476
 Vibration     5          0.597              1.972              4.349
 Vibration     6          0.600              1.963              3.900
 Vibration     7          0.606              1.943              3.312
 Vibration     8          0.616              1.911              2.774
 Vibration     9          0.625              1.880              2.439
 Vibration    10          0.626              1.878              2.422
 Vibration    11          0.631              1.862              2.291
 Vibration    12          0.638              1.838              2.120
 Vibration    13          0.656              1.783              1.821
 Vibration    14          0.660              1.772              1.772
 Vibration    15          0.664              1.758              1.711
 Vibration    16          0.709              1.625              1.284
 Vibration    17          0.722              1.590              1.199
 Vibration    18          0.734              1.557              1.127
 Vibration    19          0.785              1.420              0.882
 Vibration    20          0.810              1.357              0.791
 Vibration    21          0.815              1.345              0.774
 Vibration    22          0.830              1.310              0.729
 Vibration    23          0.869              1.218              0.623
 Vibration    24          0.899              1.154              0.558
 Vibration    25          0.922              1.105              0.513
 Vibration    26          0.956              1.035              0.452

 Optimization completed.
    -- Stationary point found.
 Normal termination of Gaussian 09 at Thu Nov 14 18:10:43 2019.
