 Gaussian 16, Revision C.01,
 Gaussian 16:  ES64L-G16RevC.01  3-Jul-2019

 ----------------------------------------------------------------------
 # DSDPBEP86/AUG-cc-PVTZ SCF=Tight INT(grid=ultrafine) MaxDisk=1400000M
 B
 ----------------------------------------------------------------------

 ----------------------------
 CP19CA.DSDPBEP86_AUG-cc-PVTZ
 ----------------------------
 Symbolic Z-matrix:
 Charge =  0 Multiplicity = 1

                         Standard orientation:
 ---------------------------------------------------------------------
 Center     Atomic      Atomic             Coordinates (Angstroms)
 Number     Number       Type             X           Y           Z
 ---------------------------------------------------------------------
      1          6           0       -0.217431   -0.719217   -0.000145
      2          7           0       -1.600966   -0.912676   -0.000225
      3          6           0       -2.583150    0.048274   -0.000081
      4          8           0       -2.417410    1.239522   -0.000008
      5          8           0       -3.781450   -0.557534   -0.000035
      6          6           0       -4.916295    0.323342    0.000056
      7          6           0       -6.163565   -0.533535    0.000071
      8          6           0       -7.419709    0.333484    0.000176
      9          6           0        0.375662    0.545769   -0.000138
     10          6           0        1.759535    0.644366   -0.000060
     11          6           0        2.577239   -0.485396    0.000002
     12          6           0        1.969480   -1.737820   -0.000017
     13          6           0        0.592523   -1.859630   -0.000091
     14          1           0       -1.933159   -1.865793   -0.000206
     15          1           0       -4.864189    0.964486   -0.883212
     16          1           0       -4.864106    0.964398    0.883384
     17          1           0       -6.148958   -1.183751    0.878978
     18          1           0       -6.149043   -1.183661   -0.878904
     19          1           0       -7.457929    0.976736    0.882618
     20          1           0       -8.319989   -0.282100    0.000174
     21          1           0       -7.457999    0.976844   -0.882184
     22          1           0       -0.227655    1.440475   -0.000184
     23         17           0        2.446813    2.239674   -0.000052
     24          6           0        4.077250   -0.379760    0.000091
     25          1           0        2.586405   -2.627172    0.000028
     26          1           0        0.139874   -2.845382   -0.000104
     27          9           0        4.649514   -1.594194    0.000085
     28          9           0        4.541378    0.266243   -1.077865
     29          9           0        4.541258    0.266177    1.078139
 ---------------------------------------------------------------------

 SCF Done:  E(RDSDPBEP86) =  -1387.61963590     A.U. after   14 cycles
 E2(DSDPBEP86) =    -0.1705411050D+01 E(DSDPBEP86) =    -0.13893250469481D+04

 The electronic state is 1-A.
 Alpha  occ. eigenvalues -- -103.57781 -25.71015 -25.70415 -25.70414 -20.06648
 Alpha  occ. eigenvalues --  -19.99990 -15.14494 -11.08667 -11.00297 -10.91347
 Alpha  occ. eigenvalues --  -10.90770 -10.88567 -10.86063 -10.85878 -10.84814
 Alpha  occ. eigenvalues --  -10.84279 -10.82922 -10.81929 -10.15288  -7.72974
 Alpha  occ. eigenvalues --   -7.72491  -7.72467  -1.57349  -1.47980  -1.47614
 Alpha  occ. eigenvalues --   -1.35833  -1.25564  -1.17312  -1.09876  -1.03079
 Alpha  occ. eigenvalues --   -0.98773  -0.96752  -0.92684  -0.88786  -0.85683
 Alpha  occ. eigenvalues --   -0.80530  -0.78297  -0.75460  -0.74043  -0.73449
 Alpha  occ. eigenvalues --   -0.72916  -0.71879  -0.69281  -0.66274  -0.64066
 Alpha  occ. eigenvalues --   -0.62195  -0.61847  -0.61274  -0.59485  -0.58795
 Alpha  occ. eigenvalues --   -0.58155  -0.57407  -0.57207  -0.56173  -0.55475
 Alpha  occ. eigenvalues --   -0.54811  -0.54534  -0.53126  -0.50440  -0.50343
 Alpha  occ. eigenvalues --   -0.49233  -0.47790  -0.47557  -0.46070  -0.44867
 Alpha  occ. eigenvalues --   -0.44482  -0.42080  -0.41297  -0.41172  -0.40996
 Alpha  occ. eigenvalues --   -0.32954  -0.30974
 Alpha virt. eigenvalues --    0.00772   0.01490   0.02582   0.02590   0.02931
 Alpha virt. eigenvalues --    0.03094   0.03605   0.03802   0.04607   0.05005
 Alpha virt. eigenvalues --    0.05369   0.05531   0.05973   0.06665   0.06732

 Mulliken charges:
               1
     1  C    0.884704
     2  N   -0.137922
     3  C    0.346131
     4  O   -0.768979
     5  O   -0.440562
     6  C   -0.201772
     7  C   -0.473260
     8  C   -0.962112
     9  C   -0.840705
    10  C    0.902362
    11  C    0.179628
    12  C   -0.665124
    13  C   -0.573528
    14  H   -0.006581
    15  H    0.332526
    16  H    0.332516
    17  H    0.213455
    18  H    0.213440
    19  H    0.279231
    20  H    0.286358
    21  H    0.279237
    22  H    0.555237
    23  Cl  -0.446069
    24  C    1.240249
    25  H    0.201781
    26  H    0.458316
    27  F   -0.367358
    28  F   -0.410597
    29  F   -0.410601
 Sum of Mulliken charges =  -0.00000

 Dipole moment (field-independent basis, Debye):
    X=             -5.6108    Y=             -3.5912    Z=             -0.0001  Tot=              6.6616
 Quadrupole moment (field-independent basis, Debye-Ang):
   XX=           -107.3577   YY=           -106.8805   ZZ=           -112.2896
   XY=              1.2669   XZ=             -0.0004   YZ=             -0.0000

 Normal termination of Gaussian 16 at Tue Sep 22 16:33:50 2020.
