 Gaussian 16, Revision C.01,
 Gaussian 16:  ES64L-G16RevC.01  3-Jul-2019

 ----------------------------------------------------------------------
 # DSDPBEP86/AUG-cc-PVTZ SCF=Tight INT(grid=ultrafine) MaxDisk=1400000M
 B
 ----------------------------------------------------------------------

 -------------------------------
 CP19CA_c2.DSDPBEP86_AUG-cc-PVTZ
 -------------------------------
 Symbolic Z-matrix:
 Charge =  0 Multiplicity = 1

                         Standard orientation:
 ---------------------------------------------------------------------
 Center     Atomic      Atomic             Coordinates (Angstroms)
 Number     Number       Type             X           Y           Z
 ---------------------------------------------------------------------
      1          6           0       -0.252700    0.138694   -0.000238
      2          7           0       -1.602254    0.500638   -0.000362
      3          6           0       -2.692282   -0.335962   -0.000271
      4          8           0       -2.671030   -1.538610   -0.000191
      5          8           0       -3.809081    0.409529   -0.000310
      6          6           0       -5.042071   -0.327329   -0.000054
      7          6           0       -6.176119    0.674649    0.000294
      8          6           0       -7.528413   -0.033057    0.000508
      9          6           0        0.680781    1.181167   -0.000141
     10          6           0        2.035791    0.907527   -0.000042
     11          6           0        2.498188   -0.409485   -0.000002
     12          6           0        1.559593   -1.435202   -0.000088
     13          6           0        0.195005   -1.184425   -0.000211
     14          1           0       -1.819157    1.486432   -0.000491
     15          1           0       -5.067905   -0.970050    0.883288
     16          1           0       -5.068320   -0.969925   -0.883478
     17          1           0       -6.082727    1.318282   -0.878598
     18          1           0       -6.082343    1.318085    0.879290
     19          1           0       -7.644908   -0.666714   -0.882024
     20          1           0       -8.347041    0.687547    0.000827
     21          1           0       -7.644475   -0.667001    0.882891
     22          1           0        0.352828    2.214587   -0.000174
     23         17           0        3.136460    2.251797    0.000045
     24          6           0        3.967138   -0.729225    0.000142
     25          1           0        1.904207   -2.461515   -0.000057
     26          1           0       -0.511083   -1.999910   -0.000279
     27          9           0        4.178658   -2.053243    0.000186
     28          9           0        4.592904   -0.235971   -1.077691
     29          9           0        4.592693   -0.235931    1.078082
 ---------------------------------------------------------------------

 SCF Done:  E(RDSDPBEP86) =  -1387.61984711     A.U. after   13 cycles
 E2(DSDPBEP86) =    -0.1705223519D+01 E(DSDPBEP86) =    -0.13893250706290D+04

 The electronic state is 1-A.
 Alpha  occ. eigenvalues -- -103.58364 -25.71031 -25.70472 -25.70470 -20.06669
 Alpha  occ. eigenvalues --  -20.00025 -15.14510 -11.08701 -11.00329 -10.91653
 Alpha  occ. eigenvalues --  -10.90784 -10.88604 -10.86083 -10.85603 -10.85287
 Alpha  occ. eigenvalues --  -10.83838 -10.82939 -10.81955 -10.15867  -7.73554
 Alpha  occ. eigenvalues --   -7.73069  -7.73049  -1.57395  -1.48032  -1.47652
 Alpha  occ. eigenvalues --   -1.35857  -1.25585  -1.17340  -1.10137  -1.03182
 Alpha  occ. eigenvalues --   -0.98857  -0.96857  -0.92748  -0.88698  -0.85745
 Alpha  occ. eigenvalues --   -0.80251  -0.79195  -0.75264  -0.73998  -0.73495
 Alpha  occ. eigenvalues --   -0.73045  -0.71134  -0.69861  -0.66156  -0.64094
 Alpha  occ. eigenvalues --   -0.62216  -0.61882  -0.61076  -0.60072  -0.58896
 Alpha  occ. eigenvalues --   -0.58178  -0.57452  -0.57335  -0.55907  -0.55522
 Alpha  occ. eigenvalues --   -0.54921  -0.54484  -0.53195  -0.50643  -0.50302
 Alpha  occ. eigenvalues --   -0.49241  -0.47898  -0.47585  -0.46172  -0.44889
 Alpha  occ. eigenvalues --   -0.44475  -0.42108  -0.41729  -0.41470  -0.41011
 Alpha  occ. eigenvalues --   -0.33107  -0.30985
 Alpha virt. eigenvalues --    0.00954   0.01663   0.02445   0.02561   0.03260
 Alpha virt. eigenvalues --    0.03289   0.03338   0.03510   0.04929   0.05045
 Alpha virt. eigenvalues --    0.05168   0.05261   0.05983   0.06654   0.07012

 Mulliken charges:
               1
     1  C    0.696632
     2  N   -0.132527
     3  C    0.537010
     4  O   -0.802219
     5  O   -0.392909
     6  C   -0.204576
     7  C   -0.467836
     8  C   -0.961902
     9  C   -0.984319
    10  C    0.787533
    11  C    0.262554
    12  C   -0.762510
    13  C   -0.392868
    14  H   -0.016725
    15  H    0.336074
    16  H    0.335944
    17  H    0.212599
    18  H    0.212572
    19  H    0.278647
    20  H    0.286286
    21  H    0.278649
    22  H    0.391570
    23  Cl  -0.458222
    24  C    1.182742
    25  H    0.303024
    26  H    0.649533
    27  F   -0.364547
    28  F   -0.405107
    29  F   -0.405101
 Sum of Mulliken charges =  -0.00000

 Dipole moment (field-independent basis, Debye):
    X=             -5.6095    Y=              1.7463    Z=             -0.0002  Tot=              5.8750
 Quadrupole moment (field-independent basis, Debye-Ang):
   XX=           -108.9741   YY=           -109.6048   ZZ=           -112.2885
   XY=             -5.2487   XZ=             -0.0015   YZ=             -0.0006

 Normal termination of Gaussian 16 at Tue Sep 22 16:11:06 2020.
