 Gaussian 09, Revision E.01,

 ----------------------------------------------------------------------
 # M062X/6-311+G* SCF=Tight INT(grid=ultrafine) OPT IOP(2/17=4) Empiric
 alDispersion=GD3 SCRF=(SMD,Solvent=n-Pentadecane) maxdisk=2147483648
 ----------------------------------------------------------------------

 -----------------------------------------
 CP19CA.M062X_6-311pGd_opt_Pentadecane_GD3
 -----------------------------------------
 Symbolic Z-matrix:
 Charge =  0 Multiplicity = 1

 SCF Done:  E(RM062X) =  -1390.68443420     A.U. after   16 cycles
 Optimization completed.
    -- Stationary point found.
 Normal termination of Gaussian 09 at Thu Nov 14 17:05:26 2019.
 Gaussian 09:  ES64L-G09RevE.01 30-Nov-2015

 ----------------------------------------------------------------------
 # M062X/6-311+G* SCF=Tight INT(grid=ultrafine) SCRF=(SMD,Solvent=n-Pen
 tadecane) EmpiricalDispersion=GD3 Freq=Noraman maxdisk=2147483648 geom
 =check guess=read IOP(2/17=4)
 ----------------------------------------------------------------------

 -----------------------------------------
 CP19CA.M062X_6-311pGd_opt_Pentadecane_GD3
 -----------------------------------------
 Structure from the checkpoint file:  "CP19CA.M062X_6-311pGd_opt_Pentadecane_GD3.chk"
 Charge =  0 Multiplicity = 1

                         Standard orientation:
 ---------------------------------------------------------------------
 Center     Atomic      Atomic             Coordinates (Angstroms)
 Number     Number       Type             X           Y           Z
 ---------------------------------------------------------------------
      1          6           0       -0.219816   -0.715247   -0.000191
      2          7           0       -1.601264   -0.908526   -0.000326
      3          6           0       -2.584836    0.049433   -0.000008
      4          8           0       -2.417311    1.242494    0.000455
      5          8           0       -3.780502   -0.554310   -0.000280
      6          6           0       -4.920804    0.323448    0.000234
      7          6           0       -6.165345   -0.536207   -0.000378
      8          6           0       -7.419872    0.331467    0.000393
      9          6           0        0.376815    0.548979   -0.000252
     10          6           0        1.760177    0.643189   -0.000142
     11          6           0        2.576008   -0.487539    0.000018
     12          6           0        1.965437   -1.739437    0.000071
     13          6           0        0.588703   -1.857724   -0.000029
     14          1           0       -1.927739   -1.865006   -0.000502
     15          1           0       -4.871707    0.963392   -0.883998
     16          1           0       -4.871773    0.962229    0.885313
     17          1           0       -6.151907   -1.185897    0.879101
     18          1           0       -6.152009   -1.184493   -0.880893
     19          1           0       -7.458405    0.974060    0.883743
     20          1           0       -8.320796   -0.284130   -0.000157
     21          1           0       -7.458407    0.975643   -0.881804
     22          1           0       -0.223408    1.445660   -0.000376
     23         17           0        2.452890    2.240029   -0.000225
     24          6           0        4.074143   -0.383658    0.000139
     25          1           0        2.578145   -2.631942    0.000200
     26          1           0        0.132731   -2.841774    0.000029
     27          9           0        4.650015   -1.595988    0.000237
     28          9           0        4.543630    0.263824   -1.077336
     29          9           0        4.543448    0.263913    1.077644
 ---------------------------------------------------------------------

 SCF Done:  E(RM062X) =  -1390.68443420     A.U. after    2 cycles

 The electronic state is 1-A.
 Alpha  occ. eigenvalues -- -102.68618 -25.28214 -25.27661 -25.27660 -19.67924
 Alpha  occ. eigenvalues --  -19.62019 -14.80794 -10.80857 -10.71607 -10.63248
 Alpha  occ. eigenvalues --  -10.62543 -10.59950 -10.58478 -10.57725 -10.56808
 Alpha  occ. eigenvalues --  -10.56624 -10.54204 -10.53085  -9.82903  -7.55422
 Alpha  occ. eigenvalues --   -7.54735  -7.54715  -1.47355  -1.37979  -1.37590
 Alpha  occ. eigenvalues --   -1.26066  -1.16133  -1.08452  -1.01876  -0.95600
 Alpha  occ. eigenvalues --   -0.91240  -0.89332  -0.85712  -0.82692  -0.79544
 Alpha  occ. eigenvalues --   -0.74968  -0.73066  -0.70207  -0.69640  -0.69128
 Alpha  occ. eigenvalues --   -0.67821  -0.67283  -0.64680  -0.61922  -0.59847
 Alpha  occ. eigenvalues --   -0.58048  -0.57887  -0.57184  -0.55392  -0.54795
 Alpha  occ. eigenvalues --   -0.54345  -0.53623  -0.53269  -0.52100  -0.51515
 Alpha  occ. eigenvalues --   -0.51370  -0.50817  -0.49854  -0.47421  -0.46529
 Alpha  occ. eigenvalues --   -0.45708  -0.44358  -0.43776  -0.43444  -0.41132
 Alpha  occ. eigenvalues --   -0.40987  -0.39220  -0.38854  -0.38628  -0.37758
 Alpha  occ. eigenvalues --   -0.32293  -0.29990
 Alpha virt. eigenvalues --   -0.01353  -0.00556   0.00233   0.01826   0.02309
 Alpha virt. eigenvalues --    0.02575   0.03370   0.03408   0.04296   0.04957
 Alpha virt. eigenvalues --    0.05054   0.05453   0.06046   0.06429   0.06990

 Mulliken charges:
               1
     1  C   -0.846717
     2  N   -0.476977
     3  C    0.074106
     4  O   -0.308410
     5  O   -0.060873
     6  C   -0.325699
     7  C   -0.144488
     8  C   -1.045432
     9  C   -0.210603
    10  C    1.030775
    11  C   -1.201667
    12  C   -0.262229
    13  C   -0.245963
    14  H    0.429800
    15  H    0.275621
    16  H    0.275618
    17  H    0.263057
    18  H    0.263062
    19  H    0.264867
    20  H    0.278682
    21  H    0.264860
    22  H    0.334287
    23  Cl   0.446169
    24  C    0.611397
    25  H    0.297214
    26  H    0.260068
    27  F   -0.138409
    28  F   -0.051060
    29  F   -0.051056
 Sum of Mulliken charges =  -0.00000

 Dipole moment (field-independent basis, Debye):
    X=             -6.3500    Y=             -4.1411    Z=             -0.0006  Tot=              7.5810
 Quadrupole moment (field-independent basis, Debye-Ang):
   XX=           -108.3406   YY=           -106.2641   ZZ=           -113.4188
   XY=              0.8766   XZ=              0.0001   YZ=             -0.0022

  Exact polarizability: 236.094   3.577 180.289   0.001   0.002 106.777
 Approx polarizability: 212.779   5.714 209.206   0.004   0.002 127.471

                      1                      2                      3
                      A                      A                      A
 Frequencies --     15.0306                20.4443                54.1569
 Red. masses --      2.9421                 4.4601                10.4797
 Frc consts  --      0.0004                 0.0011                 0.0181
 IR Inten    --      0.9595                 0.0965                 0.1460

                      4                      5                      6
                      A                      A                      A
 Frequencies --     56.1111                63.1818                82.0588
 Red. masses --      5.0980                 4.5263                 3.3920
 Frc consts  --      0.0095                 0.0106                 0.0135
 IR Inten    --      0.0628                 0.9717                 3.3943

                      7                      8                      9
                      A                      A                      A
 Frequencies --    108.6346               141.7729               161.8406
 Red. masses --      5.2236                 6.6619                16.2235
 Frc consts  --      0.0363                 0.0789                 0.2504
 IR Inten    --      0.5300                 1.7012                 0.6133

                     10                     11                     12
                      A                      A                      A
 Frequencies --    171.6631               184.7156               208.6399
 Red. masses --      3.4536                 6.0562                 7.1327
 Frc consts  --      0.0600                 0.1217                 0.1829
 IR Inten    --      2.2893                 2.1648                 1.3732

                     13                     14                     15
                      A                      A                      A
 Frequencies --    239.0516               248.4794               257.2440
 Red. masses --      1.2298                 5.1343                 5.9997
 Frc consts  --      0.0414                 0.1868                 0.2339
 IR Inten    --      0.0709                 0.2959                 1.0950

                     16                     17                     18
                      A                      A                      A
 Frequencies --    319.2256               353.9351               388.5641
 Red. masses --     12.2714                 5.1461                 7.4510
 Frc consts  --      0.7368                 0.3798                 0.6628
 IR Inten    --      1.9062                15.0463                21.4762

                     19                     20                     21
                      A                      A                      A
 Frequencies --    420.6058               422.7357               456.6140
 Red. masses --      5.7207                 6.2505                 4.3571
 Frc consts  --      0.5963                 0.6581                 0.5352
 IR Inten    --      2.3983                 2.8813                 2.9568

                     22                     23                     24
                      A                      A                      A
 Frequencies --    473.3146               512.5679               565.2676
 Red. masses --      9.2604                 5.9059                13.0137
 Frc consts  --      1.2223                 0.9142                 2.4500
 IR Inten    --      7.5905                17.8737                 1.2323

                     25                     26                     27
                      A                      A                      A
 Frequencies --    594.1577               598.9262               631.1017
 Red. masses --      1.1333                11.0853                 3.1412
 Frc consts  --      0.2357                 2.3428                 0.7371
 IR Inten    --     79.5802                 0.4197                26.3968

                     28                     29                     30
                      A                      A                      A
 Frequencies --    656.6495               724.8573               745.4572
 Red. masses --      7.3807                 7.8353                 4.9980
 Frc consts  --      1.8751                 2.4255                 1.6364
 IR Inten    --     16.4993                13.3261                 0.1650

                     31                     32                     33
                      A                      A                      A
 Frequencies --    764.8490               774.2664               791.7309
 Red. masses --      1.1155                 9.7329                 8.2008
 Frc consts  --      0.3845                 3.4377                 3.0287
 IR Inten    --      7.2472                 4.8381                21.4117

                     34                     35                     36
                      A                      A                      A
 Frequencies --    799.4305               848.7007               906.9026
 Red. masses --      9.4237                 1.4819                 1.1541
 Frc consts  --      3.5484                 0.6289                 0.5593
 IR Inten    --      6.9159                57.6204                 2.4552

                     37                     38                     39
                      A                      A                      A
 Frequencies --    918.4317               929.6325               954.2109
 Red. masses --      1.4123                 1.9461                 3.7221
 Frc consts  --      0.7019                 0.9909                 1.9968
 IR Inten    --     27.5625                 0.1669                51.6179

                     40                     41                     42
                      A                      A                      A
 Frequencies --    987.3107              1026.0664              1043.7835
 Red. masses --      1.3276                 7.2201                 5.4747
 Frc consts  --      0.7625                 4.4786                 3.5143
 IR Inten    --      2.7057                17.7892                42.6304

                     43                     44                     45
                      A                      A                      A
 Frequencies --   1076.7457              1124.0495              1141.3485
 Red. masses --      2.5059                 5.4258                 2.6856
 Frc consts  --      1.7117                 4.0391                 2.0613
 IR Inten    --      4.9041               188.1155               255.7016

                     46                     47                     48
                      A                      A                      A
 Frequencies --   1168.7997              1174.8739              1185.1144
 Red. masses --      2.3732                 2.4912                12.8669
 Frc consts  --      1.9102                 2.0260                10.6474
 IR Inten    --     18.0633               130.5655               331.6093

                     49                     50                     51
                      A                      A                      A
 Frequencies --   1194.5628              1208.5569              1269.3788
 Red. masses --      1.6640                 2.1479                 2.4882
 Frc consts  --      1.3990                 1.8484                 2.3622
 IR Inten    --      0.9043               162.5831               851.1659

                     52                     53                     54
                      A                      A                      A
 Frequencies --   1289.3436              1294.1169              1310.1620
 Red. masses --      1.9222                 1.1822                 3.1675
 Frc consts  --      1.8827                 1.1665                 3.2034
 IR Inten    --     10.2093                 1.0489               344.4153

                     55                     56                     57
                      A                      A                      A
 Frequencies --   1340.4641              1347.8586              1349.2179
 Red. masses --      1.0656                 2.6691                 1.4391
 Frc consts  --      1.1281                 2.8569                 1.5435
 IR Inten    --      1.0818               140.9044                10.0578

                     58                     59                     60
                      A                      A                      A
 Frequencies --   1362.5080              1431.8039              1443.5896
 Red. masses --      7.9880                 1.2814                 1.7735
 Frc consts  --      8.7370                 1.5478                 2.1775
 IR Inten    --    509.7216                 4.7862                53.8677

                     61                     62                     63
                      A                      A                      A
 Frequencies --   1457.5085              1501.8565              1518.7924
 Red. masses --      2.7053                 1.0638                 1.0367
 Frc consts  --      3.3860                 1.4137                 1.4090
 IR Inten    --     91.1557                 1.4567                11.9624

                     64                     65                     66
                      A                      A                      A
 Frequencies --   1520.1384              1533.5498              1558.1454
 Red. masses --      1.0861                 1.0957                 2.6497
 Frc consts  --      1.4787                 1.5182                 3.7903
 IR Inten    --      1.1976                47.5228                16.9671

                     67                     68                     69
                      A                      A                      A
 Frequencies --   1585.8112              1657.0785              1686.0193
 Red. masses --      2.7706                 4.4567                 6.2207
 Frc consts  --      4.1052                 7.2102                10.4188
 IR Inten    --    714.5184               294.4727               145.1862

                     70                     71                     72
                      A                      A                      A
 Frequencies --   1840.2337              3070.9013              3079.6814
 Red. masses --     10.3192                 1.0379                 1.0600
 Frc consts  --     20.5894                 5.7671                 5.9231
 IR Inten    --    376.6078                21.4938                12.1174

                     73                     74                     75
                      A                      A                      A
 Frequencies --   3093.6076              3113.4576              3135.9013
 Red. masses --      1.0574                 1.1043                 1.1055
 Frc consts  --      5.9623                 6.3070                 6.4051
 IR Inten    --     34.6563                 0.2430                 6.3530

                     76                     77                     78
                      A                      A                      A
 Frequencies --   3150.2523              3150.3119              3213.0680
 Red. masses --      1.1082                 1.1018                 1.0913
 Frc consts  --      6.4797                 6.4424                 6.6377
 IR Inten    --     62.3684                29.2814                 4.1932

                     79                     80                     81
                      A                      A                      A
 Frequencies --   3247.0227              3290.9470              3648.7057
 Red. masses --      1.0937                 1.0921                 1.0772
 Frc consts  --      6.7941                 6.9689                 8.4492
 IR Inten    --      0.4096                19.4175                80.4097

 - Thermochemistry -
 -------------------
 Temperature   298.150 Kelvin.  Pressure   1.00000 Atm.
 Atom     1 has atomic number  6 and mass  12.00000

 Molecular mass:   281.04304 amu.
 Principal axes and moments of inertia in atomic units:
                           1         2         3
     Eigenvalues --  1595.86688********************
           X            1.00000  -0.00280  -0.00000
           Y            0.00280   1.00000   0.00001
           Z            0.00000  -0.00001   1.00000
 This molecule is an asymmetric top.
 Rotational symmetry number  1.
 Warning -- assumption of classical behavior for rotation
           may cause significant error
 Rotational temperatures (Kelvin)      0.05427     0.00611     0.00561
 Rotational constants (GHZ):           1.13088     0.12723     0.11695
 Zero-point vibrational energy     564564.4 (Joules/Mol)
                                  134.93414 (Kcal/Mol)
 Warning -- explicit consideration of  26 degrees of freedom as
           vibrations may cause significant error
 Vibrational temperatures:     21.63    29.41    77.92    80.73    90.90
          (Kelvin)            118.06   156.30   203.98   232.85   246.98
                              265.76   300.19   343.94   357.51   370.12
                              459.29   509.23   559.06   605.16   608.22
                              656.96   680.99   737.47   813.29   854.86
                              861.72   908.01   944.77  1042.91  1072.55
                             1100.45  1114.00  1139.12  1150.20  1221.09
                             1304.83  1321.42  1337.53  1372.89  1420.52
                             1476.28  1501.77  1549.19  1617.25  1642.14
                             1681.64  1690.38  1705.11  1718.71  1738.84
                             1826.35  1855.08  1861.94  1885.03  1928.63
                             1939.27  1941.22  1960.34  2060.04  2077.00
                             2097.03  2160.83  2185.20  2187.14  2206.43
                             2241.82  2281.63  2384.16  2425.80  2647.68
                             4418.34  4430.97  4451.01  4479.57  4511.86
                             4532.50  4532.59  4622.88  4671.74  4734.93
                             5249.67

 Zero-point correction=                           0.215031 (Hartree/Particle)
 Thermal correction to Energy=                    0.232442
 Thermal correction to Enthalpy=                  0.233386
 Thermal correction to Gibbs Free Energy=         0.166169
 Sum of electronic and zero-point Energies=          -1390.469403
 Sum of electronic and thermal Energies=             -1390.451993
 Sum of electronic and thermal Enthalpies=           -1390.451048
 Sum of electronic and thermal Free Energies=        -1390.518265

                     E (Thermal)             CV                S
                      KCal/Mol        Cal/Mol-Kelvin    Cal/Mol-Kelvin
 Total                  145.859             62.427            141.469
 Electronic               0.000              0.000              0.000
 Translational            0.889              2.981             42.798
 Rotational               0.889              2.981             34.212
 Vibrational            144.082             56.466             64.459
 Vibration     1          0.593              1.986              7.202
 Vibration     2          0.593              1.986              6.591
 Vibration     3          0.596              1.976              4.660
 Vibration     4          0.596              1.975              4.589
 Vibration     5          0.597              1.972              4.355
 Vibration     6          0.600              1.961              3.841
 Vibration     7          0.606              1.942              3.293
 Vibration     8          0.615              1.911              2.780
 Vibration     9          0.622              1.889              2.528
 Vibration    10          0.626              1.877              2.417
 Vibration    11          0.631              1.861              2.280
 Vibration    12          0.642              1.828              2.056
 Vibration    13          0.657              1.781              1.810
 Vibration    14          0.662              1.765              1.741
 Vibration    15          0.667              1.751              1.680
 Vibration    16          0.705              1.637              1.314
 Vibration    17          0.730              1.567              1.149
 Vibration    18          0.757              1.495              1.006
 Vibration    19          0.783              1.425              0.890
 Vibration    20          0.785              1.421              0.883
 Vibration    21          0.815              1.346              0.776
 Vibration    22          0.830              1.309              0.728
 Vibration    23          0.868              1.222              0.627
 Vibration    24          0.921              1.106              0.513
 Vibration    25          0.952              1.044              0.460
 Vibration    26          0.957              1.034              0.452

 Normal termination of Gaussian 09 at Thu Nov 14 18:07:03 2019.
