 Gaussian 09, Revision E.01,

 ----------------------------------------------------------------------
 # M062X/6-311+G* SCF=Tight INT(grid=ultrafine) OPT IOP(2/17=4) Empiric
 alDispersion=GD3 maxdisk=2147483648
 ----------------------------------------------------------------------

 -----------------------------
 CP19CA.M062X_6-311pGd_opt_GD3
 -----------------------------
 Symbolic Z-matrix:
 Charge =  0 Multiplicity = 1

 SCF Done:  E(RM062X) =  -1390.67239487     A.U. after   16 cycles
 Optimization completed.
    -- Stationary point found.
 Normal termination of Gaussian 09 at Thu Nov 14 17:09:43 2019.
 Gaussian 09:  ES64L-G09RevE.01 30-Nov-2015

 ----------------------------------------------------------------------
 # M062X/6-311+G* SCF=Tight INT(grid=ultrafine) EmpiricalDispersion=GD3
  Freq=Noraman maxdisk=2147483648 geom=check guess=read IOP(2/17=4)
 ----------------------------------------------------------------------

 -----------------------------
 CP19CA.M062X_6-311pGd_opt_GD3
 -----------------------------
 Structure from the checkpoint file:  "CP19CA.M062X_6-311pGd_opt_GD3.chk"
 Charge =  0 Multiplicity = 1

                         Standard orientation:
 ---------------------------------------------------------------------
 Center     Atomic      Atomic             Coordinates (Angstroms)
 Number     Number       Type             X           Y           Z
 ---------------------------------------------------------------------
      1          6           0       -0.217431   -0.719217   -0.000145
      2          7           0       -1.600966   -0.912676   -0.000225
      3          6           0       -2.583150    0.048274   -0.000081
      4          8           0       -2.417410    1.239522   -0.000008
      5          8           0       -3.781450   -0.557534   -0.000035
      6          6           0       -4.916295    0.323342    0.000056
      7          6           0       -6.163565   -0.533535    0.000071
      8          6           0       -7.419709    0.333484    0.000176
      9          6           0        0.375662    0.545769   -0.000138
     10          6           0        1.759535    0.644366   -0.000060
     11          6           0        2.577239   -0.485396    0.000002
     12          6           0        1.969480   -1.737820   -0.000017
     13          6           0        0.592523   -1.859630   -0.000091
     14          1           0       -1.933159   -1.865793   -0.000206
     15          1           0       -4.864189    0.964486   -0.883212
     16          1           0       -4.864106    0.964398    0.883384
     17          1           0       -6.148958   -1.183751    0.878978
     18          1           0       -6.149043   -1.183661   -0.878904
     19          1           0       -7.457929    0.976736    0.882618
     20          1           0       -8.319989   -0.282100    0.000174
     21          1           0       -7.457999    0.976844   -0.882184
     22          1           0       -0.227655    1.440475   -0.000184
     23         17           0        2.446813    2.239674   -0.000052
     24          6           0        4.077250   -0.379760    0.000091
     25          1           0        2.586405   -2.627172    0.000028
     26          1           0        0.139874   -2.845382   -0.000104
     27          9           0        4.649514   -1.594194    0.000085
     28          9           0        4.541378    0.266243   -1.077865
     29          9           0        4.541258    0.266177    1.078139
 ---------------------------------------------------------------------

 SCF Done:  E(RM062X) =  -1390.67239487     A.U. after    2 cycles

 The electronic state is 1-A.
 Alpha  occ. eigenvalues -- -102.68516 -25.27931 -25.27323 -25.27322 -19.68572
 Alpha  occ. eigenvalues --  -19.62530 -14.81496 -10.80623 -10.72133 -10.63402
 Alpha  occ. eigenvalues --  -10.62966 -10.60870 -10.58661 -10.58148 -10.57401
 Alpha  occ. eigenvalues --  -10.56916 -10.55250 -10.54190  -9.82801  -7.55323
 Alpha  occ. eigenvalues --   -7.54631  -7.54608  -1.47078  -1.37699  -1.37314
 Alpha  occ. eigenvalues --   -1.26662  -1.16752  -1.09058  -1.02062  -0.95831
 Alpha  occ. eigenvalues --   -0.91846  -0.89840  -0.85995  -0.83048  -0.79968
 Alpha  occ. eigenvalues --   -0.75319  -0.73358  -0.70571  -0.69553  -0.69336
 Alpha  occ. eigenvalues --   -0.68411  -0.67528  -0.65270  -0.62437  -0.60578
 Alpha  occ. eigenvalues --   -0.58099  -0.57556  -0.57271  -0.55699  -0.55134
 Alpha  occ. eigenvalues --   -0.55109  -0.53365  -0.53313  -0.52684  -0.51637
 Alpha  occ. eigenvalues --   -0.51215  -0.51168  -0.50392  -0.48036  -0.47204
 Alpha  occ. eigenvalues --   -0.45962  -0.44884  -0.44684  -0.43784  -0.42138
 Alpha  occ. eigenvalues --   -0.41906  -0.39504  -0.39353  -0.38738  -0.38235
 Alpha  occ. eigenvalues --   -0.32480  -0.30398
 Alpha virt. eigenvalues --   -0.01599  -0.00889  -0.00581   0.01078   0.02016
 Alpha virt. eigenvalues --    0.02236   0.02795   0.03125   0.03819   0.04631
 Alpha virt. eigenvalues --    0.05022   0.05121   0.05991   0.06222   0.06543

 Mulliken charges:
               1
     1  C   -0.852756
     2  N   -0.466668
     3  C    0.056278
     4  O   -0.286498
     5  O   -0.058368
     6  C   -0.318924
     7  C   -0.138774
     8  C   -1.026541
     9  C   -0.208564
    10  C    1.044043
    11  C   -1.229779
    12  C   -0.243595
    13  C   -0.233086
    14  H    0.402368
    15  H    0.269083
    16  H    0.269082
    17  H    0.258889
    18  H    0.258890
    19  H    0.260088
    20  H    0.274483
    21  H    0.260087
    22  H    0.332188
    23  Cl   0.460819
    24  C    0.611974
    25  H    0.283535
    26  H    0.236925
    27  F   -0.134267
    28  F   -0.040459
    29  F   -0.040453
 Sum of Mulliken charges =  -0.00000

 Dipole moment (field-independent basis, Debye):
    X=             -5.7136    Y=             -3.4883    Z=             -0.0001  Tot=              6.6943
 Quadrupole moment (field-independent basis, Debye-Ang):
   XX=           -107.7901   YY=           -106.7832   ZZ=           -113.3138
   XY=              1.1005   XZ=             -0.0005   YZ=             -0.0000

  Exact polarizability: 216.072   3.254 157.473   0.001   0.000  96.133
 Approx polarizability: 211.384   6.030 209.990   0.003   0.001 127.211

                      1                      2                      3
                      A                      A                      A
 Frequencies --     22.3760                28.2355                56.1010
 Red. masses --      5.7669                 3.0470                13.8899
 Frc consts  --      0.0017                 0.0014                 0.0258
 IR Inten    --      0.0631                 1.3062                 0.0048

                      4                      5                      6
                      A                      A                      A
 Frequencies --     58.4497                67.2960                76.1313
 Red. masses --      5.1970                 3.6715                 3.1176
 Frc consts  --      0.0105                 0.0098                 0.0106
 IR Inten    --      0.0318                 0.5223                 3.1780

                      7                      8                      9
                      A                      A                      A
 Frequencies --    107.9827               142.0338               162.6666
 Red. masses --      5.1325                 6.4616                16.5522
 Frc consts  --      0.0353                 0.0768                 0.2580
 IR Inten    --      0.2436                 1.5157                 0.5440

                     10                     11                     12
                      A                      A                      A
 Frequencies --    171.2820               185.4837               208.6565
 Red. masses --      3.4213                 6.1689                 7.0456
 Frc consts  --      0.0591                 0.1250                 0.1807
 IR Inten    --      1.9295                 1.3664                 1.2409

                     13                     14                     15
                      A                      A                      A
 Frequencies --    236.8269               248.0140               256.9754
 Red. masses --      1.1674                 6.3471                 6.0844
 Frc consts  --      0.0386                 0.2300                 0.2367
 IR Inten    --      0.0312                 0.2382                 0.9506

                     16                     17                     18
                      A                      A                      A
 Frequencies --    319.7556               353.4666               389.1591
 Red. masses --     12.1821                 5.0817                 7.4275
 Frc consts  --      0.7339                 0.3741                 0.6627
 IR Inten    --      1.4749                13.6328                16.3085

                     19                     20                     21
                      A                      A                      A
 Frequencies --    420.4220               423.2252               457.1550
 Red. masses --      5.6725                 6.2308                 4.4012
 Frc consts  --      0.5907                 0.6576                 0.5419
 IR Inten    --      2.1705                 1.9716                 2.7109

                     22                     23                     24
                      A                      A                      A
 Frequencies --    473.5309               512.2544               561.1981
 Red. masses --      9.3274                 5.8932                 1.3238
 Frc consts  --      1.2323                 0.9111                 0.2456
 IR Inten    --      5.1378                13.8570                62.5043

                     25                     26                     27
                      A                      A                      A
 Frequencies --    565.9985               599.1017               632.4962
 Red. masses --      4.8414                11.1189                 3.2058
 Frc consts  --      0.9138                 2.3513                 0.7556
 IR Inten    --      4.9555                 0.2134                19.2815

                     28                     29                     30
                      A                      A                      A
 Frequencies --    657.1046               725.5915               746.6979
 Red. masses --      7.2798                 7.6411                 5.0696
 Frc consts  --      1.8520                 2.3702                 1.6654
 IR Inten    --     12.7179                10.6029                 0.1897

                     31                     32                     33
                      A                      A                      A
 Frequencies --    765.2662               774.4120               790.9410
 Red. masses --      1.1242                 9.6780                 7.7323
 Frc consts  --      0.3879                 3.4196                 2.8500
 IR Inten    --      5.2739                 4.2138                17.9316

                     34                     35                     36
                      A                      A                      A
 Frequencies --    797.6418               845.1255               905.7054
 Red. masses --      9.5507                 1.4857                 1.1540
 Frc consts  --      3.5802                 0.6252                 0.5577
 IR Inten    --      6.0764                45.7350                 1.9706

                     37                     38                     39
                      A                      A                      A
 Frequencies --    922.6929               928.8361               955.7998
 Red. masses --      1.3976                 1.8712                 4.0494
 Frc consts  --      0.7010                 0.9512                 2.1796
 IR Inten    --     22.4501                 0.5682                41.1716

                     40                     41                     42
                      A                      A                      A
 Frequencies --    981.1121              1026.1421              1047.2933
 Red. masses --      1.3238                 7.1338                 5.5649
 Frc consts  --      0.7508                 4.4258                 3.5962
 IR Inten    --      2.2177                 9.3307                37.8715

                     43                     44                     45
                      A                      A                      A
 Frequencies --   1075.2950              1126.4840              1144.9277
 Red. masses --      2.5494                 5.1729                 2.6434
 Frc consts  --      1.7367                 3.8675                 2.0416
 IR Inten    --      2.3927               147.4327               196.7588

                     46                     47                     48
                      A                      A                      A
 Frequencies --   1168.9664              1181.4409              1196.9415
 Red. masses --      2.3797                 2.0256                 1.6620
 Frc consts  --      1.9159                 1.6658                 1.4029
 IR Inten    --      2.7514               108.3327                 0.7897

                     49                     50                     51
                      A                      A                      A
 Frequencies --   1209.8205              1220.2949              1261.9299
 Red. masses --     12.9532                 2.7485                 2.3883
 Frc consts  --     11.1704                 2.4115                 2.2408
 IR Inten    --    279.2350               155.3887               670.5978

                     52                     53                     54
                      A                      A                      A
 Frequencies --   1287.3346              1294.3521              1309.5366
 Red. masses --      1.9081                 1.1837                 3.2247
 Frc consts  --      1.8631                 1.1684                 3.2582
 IR Inten    --     50.1887                 0.7301               260.4006

                     55                     56                     57
                      A                      A                      A
 Frequencies --   1339.1257              1346.6716              1349.1791
 Red. masses --      1.0675                 2.5390                 1.4634
 Frc consts  --      1.1279                 2.7130                 1.5695
 IR Inten    --      0.3713                48.2873                18.1586

                     58                     59                     60
                      A                      A                      A
 Frequencies --   1362.7432              1433.7365              1442.7514
 Red. masses --      7.6114                 1.2786                 1.6947
 Frc consts  --      8.3281                 1.5486                 2.0784
 IR Inten    --    475.2255                 2.8843                51.7622

                     61                     62                     63
                      A                      A                      A
 Frequencies --   1458.4442              1510.5947              1523.7725
 Red. masses --      2.9272                 1.0621                 1.0364
 Frc consts  --      3.6684                 1.4279                 1.4178
 IR Inten    --     82.0467                 1.9740                10.5353

                     64                     65                     66
                      A                      A                      A
 Frequencies --   1525.1823              1537.3065              1556.6328
 Red. masses --      1.0826                 1.1016                 2.4724
 Frc consts  --      1.4838                 1.5338                 3.5297
 IR Inten    --      1.0325                53.8883                46.7856

                     67                     68                     69
                      A                      A                      A
 Frequencies --   1584.5284              1656.5129              1688.2443
 Red. masses --      3.0463                 4.8981                 6.3223
 Frc consts  --      4.5063                 7.9190                10.6169
 IR Inten    --    638.3599               222.4323               134.5930

                     70                     71                     72
                      A                      A                      A
 Frequencies --   1853.5392              3071.5217              3079.3053
 Red. masses --     10.6383                 1.0382                 1.0595
 Frc consts  --     21.5341                 5.7708                 5.9194
 IR Inten    --    289.5706                17.7386                 7.1509

                     73                     74                     75
                      A                      A                      A
 Frequencies --   3091.0352              3112.2210              3134.4814
 Red. masses --      1.0574                 1.1044                 1.1062
 Frc consts  --      5.9527                 6.3027                 6.4033
 IR Inten    --     32.4709                 0.0875                 0.8004

                     76                     77                     78
                      A                      A                      A
 Frequencies --   3148.5513              3152.5911              3209.6553
 Red. masses --      1.1070                 1.1015                 1.0908
 Frc consts  --      6.4656                 6.4499                 6.6208
 IR Inten    --     56.1589                23.8854                 5.9431

                     79                     80                     81
                      A                      A                      A
 Frequencies --   3247.3198              3289.0113              3656.9442
 Red. masses --      1.0932                 1.0920                 1.0772
 Frc consts  --      6.7923                 6.9599                 8.4873
 IR Inten    --      0.5017                16.8164                49.7486

 - Thermochemistry -
 -------------------
 Temperature   298.150 Kelvin.  Pressure   1.00000 Atm.
 Atom     1 has atomic number  6 and mass  12.00000

 Molecular mass:   281.04304 amu.
 Principal axes and moments of inertia in atomic units:
                           1         2         3
     Eigenvalues --  1595.61390********************
           X            1.00000  -0.00283  -0.00000
           Y            0.00283   1.00000   0.00000
           Z            0.00000  -0.00000   1.00000
 This molecule is an asymmetric top.
 Rotational symmetry number  1.
 Warning -- assumption of classical behavior for rotation
           may cause significant error
 Rotational temperatures (Kelvin)      0.05428     0.00611     0.00562
 Rotational constants (GHZ):           1.13106     0.12730     0.11701
 Zero-point vibrational energy     564909.9 (Joules/Mol)
                                  135.01671 (Kcal/Mol)
 Warning -- explicit consideration of  26 degrees of freedom as
           vibrations may cause significant error
 Vibrational temperatures:     32.19    40.62    80.72    84.10    96.82
          (Kelvin)            109.54   155.36   204.35   234.04   246.44
                              266.87   300.21   340.74   356.84   369.73
                              460.06   508.56   559.91   604.89   608.93
                              657.74   681.30   737.02   807.44   814.34
                              861.97   910.02   945.43  1043.96  1074.33
                             1101.05  1114.20  1137.99  1147.63  1215.95
                             1303.11  1327.55  1336.39  1375.18  1411.60
                             1476.39  1506.82  1547.11  1620.76  1647.29
                             1681.88  1699.83  1722.13  1740.66  1755.73
                             1815.63  1852.19  1862.28  1884.13  1926.70
                             1937.56  1941.17  1960.68  2062.82  2075.79
                             2098.37  2173.41  2192.37  2194.39  2211.84
                             2239.64  2279.78  2383.35  2429.00  2666.83
                             4419.23  4430.43  4447.30  4477.79  4509.81
                             4530.06  4535.87  4617.97  4672.16  4732.15
                             5261.52

 Zero-point correction=                           0.215163 (Hartree/Particle)
 Thermal correction to Energy=                    0.232551
 Thermal correction to Enthalpy=                  0.233495
 Thermal correction to Gibbs Free Energy=         0.166991
 Sum of electronic and zero-point Energies=          -1390.457232
 Sum of electronic and thermal Energies=             -1390.439844
 Sum of electronic and thermal Enthalpies=           -1390.438900
 Sum of electronic and thermal Free Energies=        -1390.505404

                     E (Thermal)             CV                S
                      KCal/Mol        Cal/Mol-Kelvin    Cal/Mol-Kelvin
 Total                  145.928             62.460            139.971
 Electronic               0.000              0.000              0.000
 Translational            0.889              2.981             42.798
 Rotational               0.889              2.981             34.211
 Vibrational            144.151             56.498             62.961
 Vibration     1          0.593              1.985              6.411
 Vibration     2          0.593              1.984              5.950
 Vibration     3          0.596              1.975              4.590
 Vibration     4          0.596              1.974              4.509
 Vibration     5          0.598              1.970              4.231
 Vibration     6          0.599              1.965              3.988
 Vibration     7          0.606              1.943              3.305
 Vibration     8          0.616              1.911              2.776
 Vibration     9          0.623              1.888              2.519
 Vibration    10          0.626              1.878              2.421
 Vibration    11          0.632              1.860              2.272
 Vibration    12          0.642              1.827              2.055
 Vibration    13          0.656              1.784              1.827
 Vibration    14          0.662              1.766              1.745
 Vibration    15          0.667              1.751              1.682
 Vibration    16          0.706              1.636              1.311
 Vibration    17          0.730              1.568              1.151
 Vibration    18          0.757              1.493              1.003
 Vibration    19          0.783              1.426              0.891
 Vibration    20          0.785              1.420              0.881
 Vibration    21          0.815              1.345              0.774
 Vibration    22          0.830              1.309              0.728
 Vibration    23          0.867              1.223              0.628
 Vibration    24          0.917              1.115              0.521
 Vibration    25          0.922              1.105              0.512
 Vibration    26          0.957              1.034              0.451

 Optimization completed.
    -- Stationary point found.
 Normal termination of Gaussian 09 at Thu Nov 14 18:10:23 2019.
