 Gaussian 09, Revision E.01,

 ----------------------------------------------------------------------
 # M062X/6-311+G* SCF=Tight INT(grid=ultrafine) OPT IOP(2/17=4) Empiric
 alDispersion=GD3 SCRF=(SMD,Solvent=h2o) maxdisk=2147483648
 ----------------------------------------------------------------------

 -----------------------------------
 CP19CA.M062X_6-311pGd_opt_water_GD3
 -----------------------------------
 Symbolic Z-matrix:
 Charge =  0 Multiplicity = 1

 SCF Done:  E(RM062X) =  -1390.68223955     A.U. after   15 cycles
 Optimization completed.
    -- Stationary point found.
 Normal termination of Gaussian 09 at Thu Nov 14 17:16:29 2019.
 Gaussian 09:  ES64L-G09RevE.01 30-Nov-2015

 ----------------------------------------------------------------------
 # M062X/6-311+G* SCF=Tight INT(grid=ultrafine) SCRF=(SMD,Solvent=h2o)
 EmpiricalDispersion=GD3 Freq=Noraman maxdisk=2147483648 geom=check gue
 ss=read IOP(2/17=4)
 ----------------------------------------------------------------------

 -----------------------------------
 CP19CA.M062X_6-311pGd_opt_water_GD3
 -----------------------------------
 Structure from the checkpoint file:  "CP19CA.M062X_6-311pGd_opt_water_GD3.chk"
 Charge =  0 Multiplicity = 1

                         Standard orientation:
 ---------------------------------------------------------------------
 Center     Atomic      Atomic             Coordinates (Angstroms)
 Number     Number       Type             X           Y           Z
 ---------------------------------------------------------------------
      1          6           0        0.220087   -0.712748   -0.035413
      2          7           0        1.601601   -0.910822   -0.056337
      3          6           0        2.583947    0.035584   -0.003925
      4          8           0        2.415584    1.236611    0.057357
      5          8           0        3.783077   -0.555059   -0.028974
      6          6           0        4.925317    0.326617    0.027064
      7          6           0        6.168559   -0.532086   -0.014117
      8          6           0        7.418414    0.339727    0.040426
      9          6           0       -0.378429    0.550921   -0.040633
     10          6           0       -1.761291    0.640433   -0.021315
     11          6           0       -2.574768   -0.490427    0.001239
     12          6           0       -1.962306   -1.742475    0.002126
     13          6           0       -0.585677   -1.857148   -0.015735
     14          1           0        1.919681   -1.872735   -0.081660
     15          1           0        4.870096    0.908718    0.949202
     16          1           0        4.880794    1.008242   -0.824783
     17          1           0        6.161860   -1.129067   -0.930114
     18          1           0        6.153105   -1.226510    0.830282
     19          1           0        7.454389    1.029669   -0.806424
     20          1           0        8.321353   -0.272230    0.011688
     21          1           0        7.445099    0.932945    0.957947
     22          1           0        0.214016    1.451908   -0.061089
     23         17           0       -2.457999    2.240066   -0.029592
     24          6           0       -4.069622   -0.387083    0.023412
     25          1           0       -2.569634   -2.638468    0.017996
     26          1           0       -0.123768   -2.837780   -0.013573
     27          9           0       -4.653310   -1.592777    0.047405
     28          9           0       -4.525487    0.279383    1.099939
     29          9           0       -4.559748    0.253353   -1.053775
 ---------------------------------------------------------------------

 SCF Done:  E(RM062X) =  -1390.68223955     A.U. after    2 cycles

 The electronic state is 1-A.
 Alpha  occ. eigenvalues -- -102.69077 -25.28751 -25.28333 -25.28329 -19.67717
 Alpha  occ. eigenvalues --  -19.62232 -14.80221 -10.81353 -10.71807 -10.63262
 Alpha  occ. eigenvalues --  -10.62159 -10.59049 -10.58438 -10.57217 -10.56525
 Alpha  occ. eigenvalues --  -10.56065 -10.53088 -10.51912  -9.83364  -7.55877
 Alpha  occ. eigenvalues --   -7.55201  -7.55182  -1.47916  -1.38556  -1.38159
 Alpha  occ. eigenvalues --   -1.25821  -1.15904  -1.07972  -1.01929  -0.95564
 Alpha  occ. eigenvalues --   -0.90916  -0.88789  -0.85508  -0.82605  -0.79184
 Alpha  occ. eigenvalues --   -0.74763  -0.72928  -0.70333  -0.70256  -0.68647
 Alpha  occ. eigenvalues --   -0.67272  -0.67076  -0.64266  -0.61637  -0.59372
 Alpha  occ. eigenvalues --   -0.58544  -0.58515  -0.57478  -0.55290  -0.54748
 Alpha  occ. eigenvalues --   -0.54267  -0.53607  -0.53403  -0.52190  -0.51838
 Alpha  occ. eigenvalues --   -0.51115  -0.50476  -0.49502  -0.46904  -0.46351
 Alpha  occ. eigenvalues --   -0.45291  -0.43915  -0.43355  -0.42727  -0.40193
 Alpha  occ. eigenvalues --   -0.40151  -0.39347  -0.39230  -0.38168  -0.38085
 Alpha  occ. eigenvalues --   -0.32258  -0.29766
 Alpha virt. eigenvalues --   -0.01316  -0.00299   0.01038   0.02233   0.02606
 Alpha virt. eigenvalues --    0.03190   0.03602   0.03974   0.04675   0.05100
 Alpha virt. eigenvalues --    0.05153   0.05622   0.06122   0.06683   0.07214

 Mulliken charges:
               1
     1  C   -0.842684
     2  N   -0.480146
     3  C    0.159214
     4  O   -0.417814
     5  O   -0.085065
     6  C   -0.349128
     7  C   -0.159734
     8  C   -1.067983
     9  C   -0.214423
    10  C    0.987713
    11  C   -1.139840
    12  C   -0.289566
    13  C   -0.257219
    14  H    0.485015
    15  H    0.290344
    16  H    0.290437
    17  H    0.271176
    18  H    0.271038
    19  H    0.272314
    20  H    0.284164
    21  H    0.272478
    22  H    0.339099
    23  Cl   0.421911
    24  C    0.613621
    25  H    0.321323
    26  H    0.301589
    27  F   -0.140079
    28  F   -0.068992
    29  F   -0.068764
 Sum of Mulliken charges =  -0.00000

 Dipole moment (field-independent basis, Debye):
    X=              6.9828    Y=             -5.7717    Z=             -0.1609  Tot=              9.0608
 Quadrupole moment (field-independent basis, Debye-Ang):
   XX=           -109.2951   YY=           -105.2245   ZZ=           -113.4624
   XY=             -0.9113   XZ=             -0.0761   YZ=             -0.2110

  Exact polarizability: 267.493  -2.350 232.198  -0.461   0.446 139.021
 Approx polarizability: 214.597  -4.695 207.727  -0.598   0.393 127.572

                      1                      2                      3
                      A                      A                      A
 Frequencies --     15.4954                28.9807                53.4069
 Red. masses --      5.6141                 4.7910                14.1498
 Frc consts  --      0.0008                 0.0024                 0.0238
 IR Inten    --      2.1949                 3.3781                 0.0060

                      4                      5                      6
                      A                      A                      A
 Frequencies --     58.1194                66.0985                89.9941
 Red. masses --      5.2344                 4.3222                 2.1341
 Frc consts  --      0.0104                 0.0111                 0.0102
 IR Inten    --      0.1085                 0.6010                 5.8374

                      7                      8                      9
                      A                      A                      A
 Frequencies --    105.4945               141.1323               163.2653
 Red. masses --      5.4287                 6.5736                15.1779
 Frc consts  --      0.0356                 0.0771                 0.2384
 IR Inten    --      0.9159                 2.8347                 0.9927

                     10                     11                     12
                      A                      A                      A
 Frequencies --    169.2472               182.2218               208.9555
 Red. masses --      3.3628                 6.2926                 7.1275
 Frc consts  --      0.0568                 0.1231                 0.1834
 IR Inten    --      5.0589                 3.2641                 1.4532

                     13                     14                     15
                      A                      A                      A
 Frequencies --    241.5610               246.7855               256.0456
 Red. masses --      3.2766                 1.3926                 6.0992
 Frc consts  --      0.1126                 0.0500                 0.2356
 IR Inten    --      0.6321                 0.0025                 1.8243

                     16                     17                     18
                      A                      A                      A
 Frequencies --    318.0741               354.0196               386.6435
 Red. masses --     12.4537                 5.1329                 7.3684
 Frc consts  --      0.7423                 0.3790                 0.6490
 IR Inten    --      3.3630                15.7897                30.5996

                     19                     20                     21
                      A                      A                      A
 Frequencies --    418.2865               422.7776               453.0148
 Red. masses --      5.5125                 6.3658                 4.3741
 Frc consts  --      0.5683                 0.6704                 0.5289
 IR Inten    --      3.9130                 5.4955                 5.1016

                     22                     23                     24
                      A                      A                      A
 Frequencies --    472.2675               510.6873               563.4760
 Red. masses --      9.1417                 5.8673                11.9915
 Frc consts  --      1.2013                 0.9016                 2.2432
 IR Inten    --     14.9071                26.0941                 0.3318

                     25                     26                     27
                      A                      A                      A
 Frequencies --    579.0809               598.4611               631.2133
 Red. masses --      1.1255                10.7784                 3.4969
 Frc consts  --      0.2224                 2.2745                 0.8209
 IR Inten    --    178.8978                 1.5154                21.3857

                     28                     29                     30
                      A                      A                      A
 Frequencies --    654.1184               720.5919               742.3809
 Red. masses --      7.5023                 7.8685                 4.6668
 Frc consts  --      1.8913                 2.4073                 1.5154
 IR Inten    --     19.7055                20.1087                 0.3214

                     31                     32                     33
                      A                      A                      A
 Frequencies --    768.7607               769.0394               787.7095
 Red. masses --      1.8488                 2.3375                 6.2949
 Frc consts  --      0.6437                 0.8145                 2.3013
 IR Inten    --     15.2489                12.9371                32.4404

                     34                     35                     36
                      A                      A                      A
 Frequencies --    793.9864               860.4319               900.0636
 Red. masses --      9.6018                 1.4446                 1.4763
 Frc consts  --      3.5664                 0.6302                 0.7047
 IR Inten    --     12.5428                86.1534                56.6120

                     37                     38                     39
                      A                      A                      A
 Frequencies --    910.8334               926.5919               948.3988
 Red. masses --      1.1469                 2.0982                 3.2231
 Frc consts  --      0.5606                 1.0614                 1.7080
 IR Inten    --      4.7264                 0.3988                59.2250

                     40                     41                     42
                      A                      A                      A
 Frequencies --    999.0847              1014.0244              1038.9086
 Red. masses --      1.3295                 7.6841                 5.6065
 Frc consts  --      0.7819                 4.6552                 3.5653
 IR Inten    --      2.7385                27.4736                57.4399

                     43                     44                     45
                      A                      A                      A
 Frequencies --   1075.1019              1110.5702              1134.8483
 Red. masses --      2.4290                 6.3441                 2.8043
 Frc consts  --      1.6541                 4.6102                 2.1279
 IR Inten    --      4.3376               308.8687               404.9171

                     46                     47                     48
                      A                      A                      A
 Frequencies --   1140.5877              1163.0408              1166.3288
 Red. masses --     12.4843                 3.3763                 2.9567
 Frc consts  --      9.5691                 2.6908                 2.3697
 IR Inten    --    469.1228               164.5133               117.1366

                     49                     50                     51
                      A                      A                      A
 Frequencies --   1192.4327              1201.7324              1259.4305
 Red. masses --      1.6495                 1.5194                 2.5631
 Frc consts  --      1.3819                 1.2928                 2.3954
 IR Inten    --      1.6138               258.0337              1046.4929

                     52                     53                     54
                      A                      A                      A
 Frequencies --   1285.4742              1289.8062              1302.4603
 Red. masses --      2.4137                 1.1830                 2.3351
 Frc consts  --      2.3499                 1.1596                 2.3339
 IR Inten    --     14.1102                 2.9394               139.2908

                     55                     56                     57
                      A                      A                      A
 Frequencies --   1338.0044              1347.0751              1348.3684
 Red. masses --      1.0679                 1.4689                 2.8484
 Frc consts  --      1.1264                 1.5704                 3.0512
 IR Inten    --      1.6530                 6.3423               365.9996

                     58                     59                     60
                      A                      A                      A
 Frequencies --   1359.0678              1419.1993              1440.1795
 Red. masses --      6.3360                 1.2745                 1.8918
 Frc consts  --      6.8952                 1.5125                 2.3118
 IR Inten    --    641.8033                 8.6432                69.2519

                     61                     62                     63
                      A                      A                      A
 Frequencies --   1453.1917              1486.9036              1502.1646
 Red. masses --      2.4538                 1.0613                 1.0376
 Frc consts  --      3.0531                 1.3825                 1.3794
 IR Inten    --    113.3227                 1.4429                13.7938

                     64                     65                     66
                      A                      A                      A
 Frequencies --   1510.6665              1524.4577              1558.1739
 Red. masses --      1.0933                 1.0949                 2.9143
 Frc consts  --      1.4700                 1.4992                 4.1688
 IR Inten    --      1.8986                38.4383                13.1621

                     67                     68                     69
                      A                      A                      A
 Frequencies --   1580.4274              1655.4911              1677.5956
 Red. masses --      2.3643                 4.4843                 5.5307
 Frc consts  --      3.4794                 7.2411                 9.1708
 IR Inten    --    852.3629               394.3173               138.9740

                     70                     71                     72
                      A                      A                      A
 Frequencies --   1747.9223              3070.8528              3081.2052
 Red. masses --      9.7001                 1.0371                 1.0603
 Frc consts  --     17.4611                 5.7621                 5.9308
 IR Inten    --    847.3640                30.7162                25.2260

                     73                     74                     75
                      A                      A                      A
 Frequencies --   3098.4151              3117.0538              3139.1858
 Red. masses --      1.0570                 1.1043                 1.1049
 Frc consts  --      5.9786                 6.3214                 6.4149
 IR Inten    --     48.1293                 1.1800                34.6339

                     76                     77                     78
                      A                      A                      A
 Frequencies --   3149.9508              3156.1223              3229.6749
 Red. masses --      1.1024                 1.1102                 1.0917
 Frc consts  --      6.4444                 6.5157                 6.7093
 IR Inten    --     41.1881                80.4285                 1.2246

                     79                     80                     81
                      A                      A                      A
 Frequencies --   3251.4966              3298.5359              3603.6275
 Red. masses --      1.0946                 1.0920                 1.0784
 Frc consts  --      6.8184                 7.0006                 8.2509
 IR Inten    --      0.5524                23.6770               183.9012

 - Thermochemistry -
 -------------------
 Temperature   298.150 Kelvin.  Pressure   1.00000 Atm.
 Atom     1 has atomic number  6 and mass  12.00000

 Molecular mass:   281.04304 amu.
 Principal axes and moments of inertia in atomic units:
                           1         2         3
     Eigenvalues --  1596.41345********************
           X            1.00000   0.00286   0.00033
           Y           -0.00286   1.00000   0.00080
           Z           -0.00033  -0.00080   1.00000
 This molecule is an asymmetric top.
 Rotational symmetry number  1.
 Warning -- assumption of classical behavior for rotation
           may cause significant error
 Rotational temperatures (Kelvin)      0.05426     0.00610     0.00561
 Rotational constants (GHZ):           1.13050     0.12718     0.11691
 Zero-point vibrational energy     562463.5 (Joules/Mol)
                                  134.43200 (Kcal/Mol)
 Warning -- explicit consideration of  26 degrees of freedom as
           vibrations may cause significant error
 Vibrational temperatures:     22.29    41.70    76.84    83.62    95.10
          (Kelvin)            129.48   151.78   203.06   234.90   243.51
                              262.18   300.64   347.55   355.07   368.39
                              457.64   509.35   556.29   601.82   608.28
                              651.79   679.49   734.76   810.72   833.17
                              861.05   908.17   941.13  1036.77  1068.12
                             1106.07  1106.47  1133.34  1142.37  1237.97
                             1294.99  1310.48  1333.16  1364.53  1437.46
                             1458.95  1494.76  1546.83  1597.86  1632.79
                             1641.05  1673.35  1678.08  1715.64  1729.02
                             1812.04  1849.51  1855.74  1873.95  1925.09
                             1938.14  1940.00  1955.39  2041.91  2072.09
                             2090.82  2139.32  2161.28  2173.51  2193.35
                             2241.86  2273.88  2381.88  2413.68  2514.87
                             4418.27  4433.16  4457.92  4484.74  4516.58
                             4532.07  4540.95  4646.78  4678.17  4745.85
                             5184.81

 Zero-point correction=                           0.214231 (Hartree/Particle)
 Thermal correction to Energy=                    0.231651
 Thermal correction to Enthalpy=                  0.232595
 Thermal correction to Gibbs Free Energy=         0.165778
 Sum of electronic and zero-point Energies=          -1390.468009
 Sum of electronic and thermal Energies=             -1390.450589
 Sum of electronic and thermal Enthalpies=           -1390.449645
 Sum of electronic and thermal Free Energies=        -1390.516462

                     E (Thermal)             CV                S
                      KCal/Mol        Cal/Mol-Kelvin    Cal/Mol-Kelvin
 Total                  145.363             62.656            140.629
 Electronic               0.000              0.000              0.000
 Translational            0.889              2.981             42.798
 Rotational               0.889              2.981             34.213
 Vibrational            143.586             56.694             63.617
 Vibration     1          0.593              1.986              7.141
 Vibration     2          0.593              1.984              5.898
 Vibration     3          0.596              1.976              4.687
 Vibration     4          0.596              1.974              4.520
 Vibration     5          0.598              1.970              4.266
 Vibration     6          0.602              1.956              3.660
 Vibration     7          0.605              1.945              3.350
 Vibration     8          0.615              1.912              2.788
 Vibration     9          0.623              1.888              2.512
 Vibration    10          0.625              1.880              2.444
 Vibration    11          0.630              1.864              2.306
 Vibration    12          0.642              1.827              2.053
 Vibration    13          0.658              1.777              1.791
 Vibration    14          0.661              1.768              1.753
 Vibration    15          0.666              1.753              1.689
 Vibration    16          0.704              1.639              1.320
 Vibration    17          0.730              1.567              1.148
 Vibration    18          0.755              1.499              1.013
 Vibration    19          0.781              1.431              0.898
 Vibration    20          0.785              1.421              0.883
 Vibration    21          0.812              1.354              0.787
 Vibration    22          0.829              1.312              0.731
 Vibration    23          0.866              1.226              0.632
 Vibration    24          0.919              1.110              0.517
 Vibration    25          0.936              1.077              0.487
 Vibration    26          0.956              1.035              0.452

 Optimization completed.
    -- Stationary point found.
 Normal termination of Gaussian 09 at Thu Nov 14 18:18:10 2019.
