 Q-Chem 5.0, Q-Chem, Inc., Pleasanton, CA (2017)
 Q-Chem 5.0.0 for Intel X86 EM64T Linux

User input:
--------------------------------------------------------------
$molecule
  0 1
    C     -6.0172036339    1.1872070518    0.1983959368
    N     -4.7587625677    0.5930489656    0.0579894263
    C     -3.5192462680    1.2216443173    0.1495818385
    O     -3.3759427487    2.3975115375    0.3995520635
    N     -2.4661513407    0.3623029774   -0.0439817964
    C     -1.1150815817    0.9078869651   -0.0939118235
    C     -0.0881682808   -0.2147593715   -0.0991538557
    C      1.3357328559    0.3304889140   -0.1462115899
    C     -6.2178063340    2.5735593582    0.2138962626
    C     -7.5118526204    3.0570830597    0.3268234319
    C     -8.6211165558    2.2230973444    0.4246094565
    C     -8.3969659865    0.8574148908    0.4066567910
    C     -7.1187161563    0.3328397602    0.2970709479
    H     -4.7550776509   -0.4157984814    0.0652564864
    H     -2.6300127440   -0.4738084885   -0.5863217496
    H     -0.9841349354    1.5436059956    0.7830940832
    H     -0.9897209083    1.5499389103   -0.9738742421
    H     -0.2593691538   -0.8659733321   -0.9646794663
    H     -0.2297407086   -0.8312330708    0.7934318835
    H      1.4998630818    0.9292699996   -1.0452451623
    H      2.0689899774   -0.4772463353   -0.1459043899
    H      1.5403421068    0.9665647032    0.7181337156
    H     -5.3783539209    3.2476789166    0.1493650524
    Cl    -9.7463194848   -0.2355593436    0.5256953527
    H     -6.9851051851   -0.7435640815    0.2881827441
    C     -7.7616830585    4.5411122719    0.3420995719
    H     -9.6237238277    2.6226348860    0.5125733089
    F     -8.5511706811    4.9127188941   -0.6796423089
    F     -8.3916044626    4.9192843091    1.4662130987
    F     -6.6376072260    5.2555184761    0.2554849325

$end

$rem

    JOBTYPE               sp
    METHOD                CCSD(T)
    BASIS                 6-31+G*
    CC_BACKEND            XM

    MEM_TOTAL             60000
$end
--------------------------------------------------------------

             Standard Nuclear Orientation (Angstroms)
    I     Atom           X                Y                Z
 ----------------------------------------------------------------
    1      C       0.1789021916    -0.7417974996     0.0533772817
    2      N      -1.1992514333    -0.9720028932     0.1174850009
    3      C      -2.2151571887    -0.0332460259    -0.0455885517
    4      O      -2.0204550764     1.1341569774    -0.3004336949
    5      N      -3.4707533795    -0.5735069346     0.0830182185
    6      C      -4.6244760147     0.3173629808     0.0543954343
    7      C      -5.9152555532    -0.4859887459    -0.0041484793
    8      C      -7.1388948116     0.4241925024    -0.0399483490
    9      C       0.7474984275     0.5384965000     0.0535035097
   10      C       2.1283641345     0.6529414195     0.0186356644
   11      C       2.9744754874    -0.4509084572    -0.0155957027
   12      C       2.3886979987    -1.7049092965    -0.0146114324
   13      C       1.0121037194    -1.8631875393     0.0177450382
   14      H      -1.4752034084    -1.9423565835     0.1072975916
   15      H      -3.5706820203    -1.4154469066     0.6318505409
   16      H      -4.5278043125     0.9529984483    -0.8271073761
   17      H      -4.6220747240     0.9811536991     0.9271244718
   18      H      -5.9767707896    -1.1475690824     0.8682340504
   19      H      -5.8944317297    -1.1297028288    -0.8884507036
   20      H      -7.1865535434     1.0570530589     0.8494081853
   21      H      -8.0619846537    -0.1553798647    -0.0858106263
   22      H      -7.1136473006     1.0802388390    -0.9131699301
   23      H       0.1193626139     1.4151108538     0.0700710785
   24      Cl      3.3967231191    -3.1232337243    -0.0565505979
   25      H       0.5920900980    -2.8632680153     0.0158158926
   26      C       2.7706711562     2.0139779997     0.0221610270
   27      H       4.0511130092    -0.3382621393    -0.0430125184
   28      F       3.5709317604     2.1721868010     1.0898180878
   29      F       3.5431472007     2.1928256534    -1.0616934667
   30      F       1.8786311226     3.0065557439     0.0440424778
 ----------------------------------------------------------------

   16   -1365.1682035488      4.29E-09 Convergence criterion met
 Total energy in the final basis set = -1365.1682035488
 CCSD total energy           = -1367.82841343
 CCSD(T) total energy       = -1367.92789003

                    Orbital Energies (a.u.)
 --------------------------------------------------------------

 Alpha MOs
 -- Occupied --
******* -26.353 -26.349 -26.349 -20.550 -15.631 -15.608 -11.518
-11.408 -11.328 -11.325 -11.284 -11.275 -11.272 -11.268 -11.261
-11.244 -11.231 -10.577  -8.046  -8.043  -8.043  -1.734  -1.638
 -1.633  -1.426  -1.289  -1.248  -1.207  -1.143  -1.082  -1.063
 -1.021  -0.975  -0.949  -0.883  -0.879  -0.834  -0.827  -0.821
 -0.803  -0.799  -0.761  -0.718  -0.712  -0.708  -0.704  -0.677
 -0.671  -0.660  -0.657  -0.646  -0.645  -0.631  -0.626  -0.612
 -0.598  -0.585  -0.570  -0.560  -0.555  -0.536  -0.525  -0.509
 -0.501  -0.494  -0.470  -0.460  -0.458  -0.416  -0.365  -0.330

          Ground-State Mulliken Net Atomic Charges

     Atom                 Charge (a.u.)
  ----------------------------------------
      1 C                    -0.180528
      2 N                    -0.819059
      3 C                     0.662814
      4 O                    -0.631268
      5 N                    -0.676780
      6 C                    -0.067894
      7 C                    -0.275460
      8 C                    -0.673402
      9 C                     0.060637
     10 C                    -0.772802
     11 C                    -0.009500
     12 C                    -0.048829
     13 C                    -0.633076
     14 H                     0.459166
     15 H                     0.417732
     16 H                     0.226287
     17 H                     0.202844
     18 H                     0.180392
     19 H                     0.207429
     20 H                     0.197039
     21 H                     0.199886
     22 H                     0.198797
     23 H                     0.344190
     24 Cl                    0.260624
     25 H                     0.248649
     26 C                     1.812685
     27 H                     0.286126
     28 F                    -0.372231
     29 F                    -0.371703
     30 F                    -0.432763
  ----------------------------------------
  Sum of atomic charges =     0.000000

                    Cartesian Multipole Moments
 -----------------------------------------------------------------
    Charge (ESU x 10^10)
                -0.0000
    Dipole Moment (Debye)
         X      -5.0929      Y      -4.5563      Z       1.1705
       Tot       6.9331
    Quadrupole Moments (Debye-Ang)
        XX    -101.8986     XY       5.9296     YY    -116.7259
        XZ      -3.6544     YZ      -0.6452     ZZ    -115.5005

 Total job time:  92046.15s(wall), 310513.74s(cpu)
        *  Thank you very much for using Q-Chem.  Have a nice day.  *
