 Gaussian 16, Revision C.01,

 ----------------------------------------------------------------------
 # M062X/6-311+G* SCF=Tight INT(grid=ultrafine) OPT IOP(2/17=4) Empiric
 alDispersion=GD3 MaxDisk=10000MB
 ----------------------------------------------------------------------

 --------------------------
 NM3.M062X_6-311pGd_opt_GD3
 --------------------------
 Symbolic Z-matrix:
 Charge =  0 Multiplicity = 1

 SCF Done:  E(RM062X) =  -1370.79855277     A.U. after   15 cycles
 Optimization completed.
    -- Stationary point found.
 Normal termination of Gaussian 16 at Tue Sep 15 10:52:20 2020.
 Gaussian 16:  ES64L-G16RevC.01  3-Jul-2019

 ----------------------------------------------------------------------
 # M062X/6-311+G* SCF=Tight INT(grid=ultrafine) EmpiricalDispersion=GD3
  Freq=Noraman MaxDisk=10000MB geom=check guess=read IOP(2/17=4)
 ----------------------------------------------------------------------

 --------------------------
 NM3.M062X_6-311pGd_opt_GD3
 --------------------------
 Structure from the checkpoint file:  "NM3.M062X_6-311pGd_opt_GD3.chk"
 Charge =  0 Multiplicity = 1

                         Standard orientation:
 ---------------------------------------------------------------------
 Center     Atomic      Atomic             Coordinates (Angstroms)
 Number     Number       Type             X           Y           Z
 ---------------------------------------------------------------------
      1          6           0       -0.178902    0.741797    0.053377
      2          7           0        1.199251    0.972003    0.117485
      3          6           0        2.215157    0.033246   -0.045589
      4          8           0        2.020455   -1.134157   -0.300434
      5          7           0        3.470753    0.573507    0.083018
      6          6           0        4.624476   -0.317363    0.054395
      7          6           0        5.915256    0.485989   -0.004148
      8          6           0        7.138895   -0.424193   -0.039948
      9          6           0       -0.747498   -0.538496    0.053504
     10          6           0       -2.128364   -0.652941    0.018636
     11          6           0       -2.974475    0.450908   -0.015596
     12          6           0       -2.388698    1.704909   -0.014611
     13          6           0       -1.012104    1.863188    0.017745
     14          1           0        1.475203    1.942357    0.107298
     15          1           0        3.570682    1.415447    0.631851
     16          1           0        4.527804   -0.952998   -0.827107
     17          1           0        4.622075   -0.981154    0.927124
     18          1           0        5.976771    1.147569    0.868234
     19          1           0        5.894432    1.129703   -0.888451
     20          1           0        7.186554   -1.057053    0.849408
     21          1           0        8.061985    0.155380   -0.085811
     22          1           0        7.113647   -1.080239   -0.913170
     23          1           0       -0.119363   -1.415111    0.070071
     24         17           0       -3.396723    3.123234   -0.056551
     25          1           0       -0.592090    2.863268    0.015816
     26          6           0       -2.770671   -2.013978    0.022161
     27          1           0       -4.051113    0.338262   -0.043013
     28          9           0       -3.570932   -2.172187    1.089818
     29          9           0       -3.543147   -2.192826   -1.061693
     30          9           0       -1.878631   -3.006556    0.044042
 ---------------------------------------------------------------------

 SCF Done:  E(RM062X) =  -1370.79855277     A.U. after    1 cycles

 The electronic state is 1-A.
 Alpha  occ. eigenvalues -- -102.68883 -25.27810 -25.27395 -25.27393 -19.60666
 Alpha  occ. eigenvalues --  -14.80759 -14.78607 -10.80299 -10.69372 -10.62848
 Alpha  occ. eigenvalues --  -10.62557 -10.58737 -10.58383 -10.57715 -10.57222
 Alpha  occ. eigenvalues --  -10.56629 -10.55438 -10.53993  -9.83151  -7.55666
 Alpha  occ. eigenvalues --   -7.54985  -7.54976  -1.47035  -1.37751  -1.37242
 Alpha  occ. eigenvalues --   -1.20135  -1.08402  -1.05015  -1.01514  -0.96187
 Alpha  occ. eigenvalues --   -0.90808  -0.89022  -0.85409  -0.81880  -0.79774
 Alpha  occ. eigenvalues --   -0.74396  -0.74007  -0.70438  -0.69921  -0.69298
 Alpha  occ. eigenvalues --   -0.67659  -0.67516  -0.64366  -0.60546  -0.59937
 Alpha  occ. eigenvalues --   -0.57689  -0.57591  -0.57404  -0.55866  -0.55042
 Alpha  occ. eigenvalues --   -0.54043  -0.53470  -0.53199  -0.52041  -0.51497
 Alpha  occ. eigenvalues --   -0.51158  -0.49918  -0.49695  -0.48616  -0.47273
 Alpha  occ. eigenvalues --   -0.46441  -0.44534  -0.44228  -0.43326  -0.42144
 Alpha  occ. eigenvalues --   -0.41473  -0.39324  -0.39181  -0.36803  -0.34136
 Alpha  occ. eigenvalues --   -0.32616  -0.29454
 Alpha virt. eigenvalues --   -0.01700  -0.01393  -0.00178   0.01010   0.01840
 Alpha virt. eigenvalues --    0.02249   0.02823   0.03196   0.03541   0.04377
 Alpha virt. eigenvalues --    0.04836   0.05171   0.05419   0.06103   0.06421

 Mulliken charges:
               1
     1  C   -1.138602
     2  N   -0.361244
     3  C    0.087717
     4  O   -0.333033
     5  N   -0.280318
     6  C   -0.528193
     7  C   -0.114677
     8  C   -1.018685
     9  C   -0.207338
    10  C   -1.011290
    11  C    0.745869
    12  C    0.229803
    13  C   -0.343673
    14  H    0.341301
    15  H    0.323868
    16  H    0.272043
    17  H    0.262632
    18  H    0.231930
    19  H    0.262913
    20  H    0.260449
    21  H    0.269672
    22  H    0.262213
    23  H    0.329678
    24  Cl   0.424908
    25  H    0.254493
    26  C    0.717626
    27  H    0.298345
    28  F   -0.055091
    29  F   -0.056158
    30  F   -0.127157
 Sum of Mulliken charges =  -0.00000

 Dipole moment (field-independent basis, Debye):
    X=              5.1706    Y=              4.4423    Z=              1.0989  Tot=              6.9048
 Quadrupole moment (field-independent basis, Debye-Ang):
   XX=            -99.6993   YY=           -115.1857   ZZ=           -115.0023
   XY=              4.9543   XZ=              3.4623   YZ=              0.6919

  Exact polarizability:     219.897     -12.668     166.456       1.804       1.042      99.387
 Approx polarizability:     220.785      -7.828     211.643       2.486       2.696     131.955

                      1                      2                      3
                      A                      A                      A
 Frequencies --     14.8774                18.5287                22.7297
 Red. masses --     17.0135                 2.7032                 4.8797
 Frc consts  --      0.0022                 0.0005                 0.0015
 IR Inten    --      0.0839                 2.9198                 1.7393

                      4                      5                      6
                      A                      A                      A
 Frequencies --     51.6545                59.6936                77.2739
 Red. masses --      4.3053                 4.1512                 2.9451
 Frc consts  --      0.0068                 0.0087                 0.0104
 IR Inten    --      1.2335                 4.9959                 0.6918

                      7                      8                      9
                      A                      A                      A
 Frequencies --    115.1023               119.5254               153.9520
 Red. masses --      8.3937                 7.2458                 8.5466
 Frc consts  --      0.0655                 0.0610                 0.1193
 IR Inten    --      0.2849                 1.3001                 5.3717

                     10                     11                     12
                      A                      A                      A
 Frequencies --    184.2600               195.2598               223.9569
 Red. masses --      2.7985                 5.0951                 6.6941
 Frc consts  --      0.0560                 0.1145                 0.1978
 IR Inten    --      0.2680                 0.0640                 0.5668

                     13                     14                     15
                      A                      A                      A
 Frequencies --    237.4976               242.4860               252.0108
 Red. masses --      2.5704                 1.3032                 5.3840
 Frc consts  --      0.0854                 0.0451                 0.2015
 IR Inten    --      1.2411                 0.4341                 8.1929

                     16                     17                     18
                      A                      A                      A
 Frequencies --    329.9147               335.5938               341.4415
 Red. masses --      8.9050                 7.2425                 6.5840
 Frc consts  --      0.5711                 0.4806                 0.4522
 IR Inten    --      5.7335                 0.0967                 8.0197

                     19                     20                     21
                      A                      A                      A
 Frequencies --    345.4346               372.8387               447.7260
 Red. masses --      4.6065                 1.5366                 6.8234
 Frc consts  --      0.3239                 0.1258                 0.8059
 IR Inten    --     42.2056                43.3067                 1.4019

                     22                     23                     24
                      A                      A                      A
 Frequencies --    452.0383               481.9359               502.1401
 Red. masses --      3.8516                 3.9795                 1.5158
 Frc consts  --      0.4637                 0.5446                 0.2252
 IR Inten    --     17.2038                10.0868                96.1262

                     25                     26                     27
                      A                      A                      A
 Frequencies --    518.2964               576.1709               601.7147
 Red. masses --      6.5813                 5.9182                10.2313
 Frc consts  --      1.0416                 1.1575                 2.1825
 IR Inten    --     20.1222                 2.2110                 0.5911

                     28                     29                     30
                      A                      A                      A
 Frequencies --    651.1522               655.9129               713.5504
 Red. masses --      4.6015                 5.1683                 2.6278
 Frc consts  --      1.1495                 1.3101                 0.7883
 IR Inten    --      9.9288                19.1485                14.7450

                     31                     32                     33
                      A                      A                      A
 Frequencies --    717.8906               755.6624               773.3200
 Red. masses --     11.4723                 1.2535                 4.0540
 Frc consts  --      3.4835                 0.4217                 1.4284
 IR Inten    --     33.2839                 8.2833                 9.2571

                     34                     35                     36
                      A                      A                      A
 Frequencies --    803.9316               858.6537               878.5632
 Red. masses --      6.0340                10.3632                 1.6064
 Frc consts  --      2.2977                 4.5017                 0.7306
 IR Inten    --     10.0243                41.6960                45.3638

                     37                     38                     39
                      A                      A                      A
 Frequencies --    890.6176               903.9275               927.5837
 Red. masses --      1.4381                 1.1904                 1.9007
 Frc consts  --      0.6721                 0.5731                 0.9635
 IR Inten    --      0.0287                 2.5340                 0.9265

                     40                     41                     42
                      A                      A                      A
 Frequencies --    939.7641               969.8818              1013.1527
 Red. masses --      1.3931                 4.6921                 6.0366
 Frc consts  --      0.7249                 2.6005                 3.6508
 IR Inten    --     20.2965                47.6745                 9.3049

                     43                     44                     45
                      A                      A                      A
 Frequencies --   1048.1521              1079.3182              1139.2141
 Red. masses --      4.1454                 2.6662                 1.9727
 Frc consts  --      2.6833                 1.8300                 1.5084
 IR Inten    --     12.6081                19.5198                44.3482

                     46                     47                     48
                      A                      A                      A
 Frequencies --   1147.4246              1159.1684              1166.1028
 Red. masses --      2.6525                 1.6400                 2.6058
 Frc consts  --      2.0575                 1.2984                 2.0877
 IR Inten    --     18.5317                12.3208                10.8072

                     49                     50                     51
                      A                      A                      A
 Frequencies --   1181.6016              1196.7176              1232.6931
 Red. masses --      1.7078                12.8559                 1.9840
 Frc consts  --      1.4048                10.8477                 1.7763
 IR Inten    --      0.4212               282.5152               150.2065

                     52                     53                     54
                      A                      A                      A
 Frequencies --   1237.1791              1273.3408              1289.9597
 Red. masses --      5.8501                 2.3675                 1.3193
 Frc consts  --      5.2757                 2.2617                 1.2935
 IR Inten    --    429.8725                37.2649                83.9143

                     55                     56                     57
                      A                      A                      A
 Frequencies --   1302.3386              1332.7020              1344.5139
 Red. masses --      1.8400                 1.1926                 1.7934
 Frc consts  --      1.8387                 1.2480                 1.9101
 IR Inten    --     88.5975                28.3989                51.1792

                     58                     59                     60
                      A                      A                      A
 Frequencies --   1350.2996              1377.8609              1425.1418
 Red. masses --      1.6010                 4.0910                 1.5371
 Frc consts  --      1.7198                 4.5761                 1.8393
 IR Inten    --     31.4405               283.9211                 3.0870

                     61                     62                     63
                      A                      A                      A
 Frequencies --   1432.9676              1478.8983              1509.3994
 Red. masses --      1.2955                 3.2956                 1.0649
 Frc consts  --      1.5673                 4.2468                 1.4295
 IR Inten    --      2.0232               110.4742                13.2984

                     64                     65                     66
                      A                      A                      A
 Frequencies --   1515.2885              1523.1261              1524.0916
 Red. masses --      3.8030                 1.0420                 1.0740
 Frc consts  --      5.1448                 1.4242                 1.4698
 IR Inten    --    393.3451                12.4987                 2.0763

                     67                     68                     69
                      A                      A                      A
 Frequencies --   1536.8851              1547.8206              1596.5648
 Red. masses --      1.1587                 1.6396                 2.1634
 Frc consts  --      1.6125                 2.3144                 3.2490
 IR Inten    --     25.6528               318.3067               497.5153

                     70                     71                     72
                      A                      A                      A
 Frequencies --   1669.5149              1686.6372              1822.9567
 Red. masses --      5.7162                 6.4155                 8.6806
 Frc consts  --      9.3872                10.7529                16.9963
 IR Inten    --    195.1162                38.9744               280.7023

                     73                     74                     75
                      A                      A                      A
 Frequencies --   3052.2132              3055.9132              3072.1383
 Red. masses --      1.0643                 1.0724                 1.0370
 Frc consts  --      5.8418                 5.9003                 5.7664
 IR Inten    --     18.0245                30.7696                28.6641

                     76                     77                     78
                      A                      A                      A
 Frequencies --   3099.7385              3134.7920              3143.4944
 Red. masses --      1.0954                 1.0977                 1.1018
 Frc consts  --      6.2010                 6.3557                 6.4148
 IR Inten    --     13.1012                 0.9115                45.1892

                     79                     80                     81
                      A                      A                      A
 Frequencies --   3150.3626              3213.3265              3241.3970
 Red. masses --      1.1020                 1.0920                 1.0932
 Frc consts  --      6.4442                 6.6434                 6.7672
 IR Inten    --     25.8278                 2.8876                 1.8094

                     82                     83                     84
                      A                      A                      A
 Frequencies --   3290.2552              3634.7794              3653.1274
 Red. masses --      1.0922                 1.0771                 1.0767
 Frc consts  --      6.9664                 8.3841                 8.4663
 IR Inten    --     20.2359                20.4681                29.4363

 - Thermochemistry -
 -------------------
 Temperature   298.150 Kelvin.  Pressure   1.00000 Atm.
 Atom     1 has atomic number  6 and mass  12.00000

 Molecular mass:   280.05903 amu.
 Principal axes and moments of inertia in atomic units:
                           1         2         3
     Eigenvalues --  3411.04246********************
           X            0.99998  -0.00595   0.00067
           Y            0.00595   0.99998   0.00156
           Z           -0.00068  -0.00155   1.00000
 This molecule is an asymmetric top.
 Rotational symmetry number  1.
 Warning -- assumption of classical behavior for rotation
           may cause significant error
 Rotational temperatures (Kelvin)      0.02539     0.00747     0.00592
 Rotational constants (GHZ):           0.52909     0.15566     0.12327
 Zero-point vibrational energy     595722.6 (Joules/Mol)
                                  142.38111 (Kcal/Mol)
 Warning -- explicit consideration of  27 degrees of freedom as
           vibrations may cause significant error
 Vibrational temperatures:     21.41    26.66    32.70    74.32    85.89
          (Kelvin)            111.18   165.61   171.97   221.50   265.11
                              280.94   322.22   341.71   348.88   362.59
                              474.67   482.84   491.26   497.00   536.43
                              644.18   650.38   693.40   722.47   745.71
                              828.98   865.73   936.86   943.71  1026.64
                             1032.88  1087.23  1112.64  1156.68  1235.41
                             1264.06  1281.40  1300.55  1334.59  1352.11
                             1395.44  1457.70  1508.06  1552.90  1639.07
                             1650.89  1667.78  1677.76  1700.06  1721.81
                             1773.57  1780.02  1832.05  1855.96  1873.77
                             1917.46  1934.46  1942.78  1982.43  2050.46
                             2061.72  2127.80  2171.69  2180.16  2191.44
                             2192.83  2211.23  2226.97  2297.10  2402.06
                             2426.69  2622.83  4391.45  4396.78  4420.12
                             4459.83  4510.27  4522.79  4532.67  4623.26
                             4663.65  4733.94  5229.64  5256.04

 Zero-point correction=                           0.226899 (Hartree/Particle)
 Thermal correction to Energy=                    0.244899
 Thermal correction to Enthalpy=                  0.245844
 Thermal correction to Gibbs Free Energy=         0.176482
 Sum of electronic and zero-point Energies=          -1370.571654
 Sum of electronic and thermal Energies=             -1370.553653
 Sum of electronic and thermal Enthalpies=           -1370.552709
 Sum of electronic and thermal Free Energies=        -1370.622071

                     E (Thermal)             CV                S
                      KCal/Mol        Cal/Mol-Kelvin    Cal/Mol-Kelvin
 Total                  153.677             64.393            145.984
 Electronic               0.000              0.000              0.000
 Translational            0.889              2.981             42.788
 Rotational               0.889              2.981             34.714
 Vibrational            151.899             58.432             68.482
 Vibration     1          0.593              1.986              7.222
 Vibration     2          0.593              1.986              6.786
 Vibration     3          0.593              1.985              6.380
 Vibration     4          0.596              1.977              4.753
 Vibration     5          0.597              1.974              4.467
 Vibration     6          0.599              1.964              3.959
 Vibration     7          0.608              1.937              3.181
 Vibration     8          0.609              1.933              3.108
 Vibration     9          0.619              1.898              2.623
 Vibration    10          0.631              1.861              2.285
 Vibration    11          0.636              1.846              2.177
 Vibration    12          0.649              1.805              1.927
 Vibration    13          0.656              1.783              1.822
 Vibration    14          0.659              1.775              1.785
 Vibration    15          0.664              1.759              1.716
 Vibration    16          0.713              1.616              1.261
 Vibration    17          0.717              1.604              1.233
 Vibration    18          0.721              1.593              1.205
 Vibration    19          0.724              1.585              1.187
 Vibration    20          0.744              1.528              1.068
 Vibration    21          0.807              1.366              0.803
 Vibration    22          0.811              1.356              0.790
 Vibration    23          0.838              1.290              0.705
 Vibration    24          0.857              1.245              0.653
 Vibration    25          0.873              1.209              0.614
 Vibration    26          0.933              1.083              0.493
 Vibration    27          0.960              1.028              0.447

 Optimization completed.
    -- Stationary point found.
 Normal termination of Gaussian 16 at Tue Sep 15 14:50:40 2020.
