 Gaussian 16, Revision C.01,

 ----------------------------------------------------------------------
 # M062X/6-311+G* SCF=Tight INT(grid=ultrafine) OPT IOP(2/17=4) Empiric
 alDispersion=GD3 SCRF=(SMD,Solvent=h2o) MaxDisk=10000MB
 ----------------------------------------------------------------------

 -----------------------------------
 NM3_c2.M062X_6-311pGd_opt_water_GD3
 -----------------------------------
 Symbolic Z-matrix:
 Charge =  0 Multiplicity = 1

 SCF Done:  E(RM062X) =  -1370.81811327     A.U. after   15 cycles
 Optimization completed.
    -- Stationary point found.
 Normal termination of Gaussian 16 at Tue Sep 15 10:52:00 2020.
 Gaussian 16:  ES64L-G16RevC.01  3-Jul-2019

 ----------------------------------------------------------------------
 # M062X/6-311+G* SCF=Tight INT(grid=ultrafine) EmpiricalDispersion=GD3
  SCRF=(SMD,Solvent=h2o) Freq=Noraman MaxDisk=10000MB geom=check guess=
 read IOP(2/17=4)
 ----------------------------------------------------------------------

 -----------------------------------
 NM3_c2.M062X_6-311pGd_opt_water_GD3
 -----------------------------------
 Structure from the checkpoint file:  "NM3_c2.M062X_6-311pGd_opt_water_GD3.chk"
 Charge =  0 Multiplicity = 1

                         Standard orientation:
 ---------------------------------------------------------------------
 Center     Atomic      Atomic             Coordinates (Angstroms)
 Number     Number       Type             X           Y           Z
 ---------------------------------------------------------------------
      1          6           0        0.119981   -0.041416   -0.206023
      2          7           0       -1.182285   -0.521674   -0.358967
      3          6           0       -2.343634    0.128506    0.022036
      4          8           0       -2.344852    1.248851    0.537513
      5          7           0       -3.473821   -0.564978   -0.212608
      6          6           0       -4.779586   -0.030088    0.153388
      7          6           0       -5.872162   -1.030787   -0.184091
      8          6           0       -7.246918   -0.488578    0.186770
      9          6           0        1.151037   -0.985559   -0.115461
     10          6           0        2.462072   -0.559024   -0.007973
     11          6           0        2.798313    0.792465    0.025934
     12          6           0        1.760892    1.702704   -0.069492
     13          6           0        0.431512    1.319976   -0.194620
     14          1           0       -1.261109   -1.508532   -0.573528
     15          1           0       -3.429520   -1.468308   -0.665126
     16          1           0       -4.951657    0.909865   -0.379105
     17          1           0       -4.791458    0.193986    1.223727
     18          1           0       -5.680918   -1.966796    0.349825
     19          1           0       -5.834687   -1.258486   -1.254040
     20          1           0       -7.308133   -0.272721    1.256529
     21          1           0       -8.031303   -1.208342   -0.054208
     22          1           0       -7.463429    0.436059   -0.354390
     23          1           0        0.909902   -2.042001   -0.131450
     24         17           0        2.134177    3.409054   -0.049753
     25          1           0       -0.341407    2.066900   -0.294738
     26          6           0        3.578810   -1.556292    0.084543
     27          1           0        3.827532    1.117498    0.119039
     28          9           0        4.454383   -1.420632   -0.928428
     29          9           0        4.290565   -1.405380    1.216365
     30          9           0        3.151145   -2.823848    0.060301
 ---------------------------------------------------------------------

 SCF Done:  E(RM062X) =  -1370.81811327     A.U. after    2 cycles

 The electronic state is 1-A.
 Alpha  occ. eigenvalues -- -102.68561 -25.28821 -25.28400 -25.28393 -19.60100
 Alpha  occ. eigenvalues --  -14.78931 -14.77136 -10.81138 -10.68620 -10.62269
 Alpha  occ. eigenvalues --  -10.61570 -10.58630 -10.56771 -10.56701 -10.56671
 Alpha  occ. eigenvalues --  -10.56429 -10.53061 -10.51753  -9.82832  -7.55339
 Alpha  occ. eigenvalues --   -7.54676  -7.54660  -1.47940  -1.38657  -1.38176
 Alpha  occ. eigenvalues --   -1.18885  -1.06944  -1.03752  -1.00873  -0.95911
 Alpha  occ. eigenvalues --   -0.89785  -0.87757  -0.84950  -0.82085  -0.78354
 Alpha  occ. eigenvalues --   -0.74537  -0.72432  -0.70266  -0.69893  -0.68924
 Alpha  occ. eigenvalues --   -0.68674  -0.65091  -0.63599  -0.59968  -0.58924
 Alpha  occ. eigenvalues --   -0.58479  -0.58282  -0.56400  -0.55707  -0.54225
 Alpha  occ. eigenvalues --   -0.54135  -0.53569  -0.52445  -0.52214  -0.51562
 Alpha  occ. eigenvalues --   -0.51252  -0.49481  -0.48764  -0.46800  -0.46001
 Alpha  occ. eigenvalues --   -0.45857  -0.44188  -0.42532  -0.42121  -0.40003
 Alpha  occ. eigenvalues --   -0.39365  -0.39007  -0.38346  -0.36672  -0.33274
 Alpha  occ. eigenvalues --   -0.32106  -0.28618
 Alpha virt. eigenvalues --   -0.01180  -0.00001   0.00946   0.02229   0.02675
 Alpha virt. eigenvalues --    0.03215   0.03581   0.03699   0.04421   0.04915
 Alpha virt. eigenvalues --    0.05253   0.05576   0.05743   0.06406   0.06951

 Mulliken charges:
               1
     1  C   -0.840887
     2  N   -0.334174
     3  C    0.046627
     4  O   -0.524479
     5  N   -0.405307
     6  C   -0.498126
     7  C   -0.167884
     8  C   -1.032620
     9  C   -0.249624
    10  C   -1.332984
    11  C    0.490740
    12  C    0.459360
    13  C   -0.270617
    14  H    0.432342
    15  H    0.452503
    16  H    0.277729
    17  H    0.276836
    18  H    0.268795
    19  H    0.267398
    20  H    0.269891
    21  H    0.280199
    22  H    0.269591
    23  H    0.309425
    24  Cl   0.402025
    25  H    0.332614
    26  C    0.768144
    27  H    0.340975
    28  F   -0.073212
    29  F   -0.071591
    30  F   -0.143688
 Sum of Mulliken charges =  -0.00000

 Dipole moment (field-independent basis, Debye):
    X=             -5.7943    Y=             -6.1927    Z=             -2.6354  Tot=              8.8808
 Quadrupole moment (field-independent basis, Debye-Ang):
   XX=           -103.4190   YY=           -115.4493   ZZ=           -115.8214
   XY=             19.0200   XZ=              5.8664   YZ=              0.2525

  Exact polarizability:     271.383      12.686     242.001       4.037       7.938     147.859
 Approx polarizability:     216.929       9.631     213.581       4.358       7.050     135.138

                      1                      2                      3
                      A                      A                      A
 Frequencies --     14.4603                16.4694                25.7195
 Red. masses --      4.4131                15.7991                 2.2842
 Frc consts  --      0.0005                 0.0025                 0.0009
 IR Inten    --      0.2333                 0.1727                 2.1629

                      4                      5                      6
                      A                      A                      A
 Frequencies --     47.5391                59.1499                66.7561
 Red. masses --      3.6775                 4.8081                 5.2077
 Frc consts  --      0.0049                 0.0099                 0.0137
 IR Inten    --     10.2898                33.8505                 3.8561

                      7                      8                      9
                      A                      A                      A
 Frequencies --    111.7336               130.1371               137.7930
 Red. masses --      9.3320                 7.1685                 6.7425
 Frc consts  --      0.0686                 0.0715                 0.0754
 IR Inten    --      1.0471                 5.4404                 6.7038

                     10                     11                     12
                      A                      A                      A
 Frequencies --    142.9814               197.4815               226.1394
 Red. masses --      2.9151                 5.4474                 7.3107
 Frc consts  --      0.0351                 0.1252                 0.2203
 IR Inten    --     11.7956                 0.9003                 2.6257

                     13                     14                     15
                      A                      A                      A
 Frequencies --    236.6281               240.3812               257.5031
 Red. masses --      1.5968                 2.1770                 4.7871
 Frc consts  --      0.0527                 0.0741                 0.1870
 IR Inten    --      3.3417                 1.3101                 5.2714

                     16                     17                     18
                      A                      A                      A
 Frequencies --    327.3958               333.2333               337.2400
 Red. masses --      9.8216                 7.0373                 5.0894
 Frc consts  --      0.6203                 0.4604                 0.3410
 IR Inten    --      6.3971                 0.8218                 8.4741

                     19                     20                     21
                      A                      A                      A
 Frequencies --    362.7684               363.6312               432.2651
 Red. masses --      6.7689                 1.1603                 7.6695
 Frc consts  --      0.5248                 0.0904                 0.8443
 IR Inten    --     34.6777                80.8476                 5.3413

                     22                     23                     24
                      A                      A                      A
 Frequencies --    467.6640               475.6844               509.6130
 Red. masses --      5.2608                 5.9152                 1.4169
 Frc consts  --      0.6779                 0.7886                 0.2168
 IR Inten    --      4.5819                 4.8819               242.8262

                     25                     26                     27
                      A                      A                      A
 Frequencies --    517.0531               574.2417               600.1562
 Red. masses --      4.2368                 5.7999                 9.8331
 Frc consts  --      0.6674                 1.1268                 2.0867
 IR Inten    --     29.5309                 0.3519                 0.3351

                     28                     29                     30
                      A                      A                      A
 Frequencies --    645.6005               653.2936               706.2773
 Red. masses --      5.0024                 5.8017                 2.6049
 Frc consts  --      1.2285                 1.4589                 0.7656
 IR Inten    --      7.0886                17.8300                45.3677

                     31                     32                     33
                      A                      A                      A
 Frequencies --    715.4182               758.6121               777.3875
 Red. masses --     10.9431                 1.1556                 5.3117
 Frc consts  --      3.3000                 0.3918                 1.8913
 IR Inten    --     62.2690                17.3171                18.4020

                     34                     35                     36
                      A                      A                      A
 Frequencies --    792.6886               856.2212               885.5535
 Red. masses --      6.6858                11.2222                 1.5710
 Frc consts  --      2.4752                 4.8473                 0.7258
 IR Inten    --     31.9263                59.7782                92.3090

                     37                     38                     39
                      A                      A                      A
 Frequencies --    905.8448               907.6341               917.0343
 Red. masses --      1.5564                 1.1579                 1.3693
 Frc consts  --      0.7524                 0.5620                 0.6785
 IR Inten    --     41.1587                 5.9939                 1.6881

                     40                     41                     42
                      A                      A                      A
 Frequencies --    926.3511               966.3908              1013.5335
 Red. masses --      1.8098                 4.9526                 5.9606
 Frc consts  --      0.9150                 2.7252                 3.6076
 IR Inten    --      0.1115                80.3450                11.5392

                     43                     44                     45
                      A                      A                      A
 Frequencies --   1050.2727              1081.6116              1137.0313
 Red. masses --      4.1699                 2.6275                 2.5564
 Frc consts  --      2.7101                 1.8110                 1.9472
 IR Inten    --     39.4301                43.0424               108.0084

                     46                     47                     48
                      A                      A                      A
 Frequencies --   1142.4727              1147.0662              1161.2761
 Red. masses --     12.0513                 1.9323                 2.1656
 Frc consts  --      9.2678                 1.4979                 1.7207
 IR Inten    --    461.5954                10.4829                36.7320

                     49                     50                     51
                      A                      A                      A
 Frequencies --   1173.6689              1182.5792              1190.1215
 Red. masses --      3.3560                 1.6208                 5.7762
 Frc consts  --      2.7237                 1.3355                 4.8203
 IR Inten    --     47.3675                 0.3146               381.9909

                     52                     53                     54
                      A                      A                      A
 Frequencies --   1257.1199              1286.0477              1288.8771
 Red. masses --      1.8208                 1.1900                 2.2318
 Frc consts  --      1.6954                 1.1596                 2.1844
 IR Inten    --    360.9343                 1.0502               167.1047

                     55                     56                     57
                      A                      A                      A
 Frequencies --   1297.1475              1334.1692              1345.8319
 Red. masses --      1.9327                 1.0710                 1.4357
 Frc consts  --      1.9160                 1.1232                 1.5321
 IR Inten    --    139.3262                 1.2199                97.4710

                     58                     59                     60
                      A                      A                      A
 Frequencies --   1350.8036              1380.7856              1416.6102
 Red. masses --      2.2531                 5.3202                 1.2631
 Frc consts  --      2.4223                 5.9763                 1.4935
 IR Inten    --     25.8829               723.6248                 3.0896

                     61                     62                     63
                      A                      A                      A
 Frequencies --   1424.0996              1474.1782              1486.4833
 Red. masses --      1.6245                 3.1116                 1.0581
 Frc consts  --      1.9411                 3.9842                 1.3775
 IR Inten    --     12.1033                44.2507                10.6513

                     64                     65                     66
                      A                      A                      A
 Frequencies --   1499.9761              1509.1192              1513.4925
 Red. masses --      1.0380                 1.0911                 3.8193
 Frc consts  --      1.3759                 1.4640                 5.1546
 IR Inten    --     14.1194                19.9661               331.2945

                     67                     68                     69
                      A                      A                      A
 Frequencies --   1530.4461              1574.1399              1581.9203
 Red. masses --      1.0927                 2.1603                 2.2797
 Frc consts  --      1.5080                 3.1539                 3.3612
 IR Inten    --     40.1836              1267.2179               382.2996

                     70                     71                     72
                      A                      A                      A
 Frequencies --   1667.6055              1681.4435              1703.0122
 Red. masses --      5.4559                 5.1631                 4.2249
 Frc consts  --      8.9393                 8.6006                 7.2194
 IR Inten    --    156.7779               109.3405               682.1119

                     73                     74                     75
                      A                      A                      A
 Frequencies --   3067.9393              3068.9076              3076.1507
 Red. masses --      1.0598                 1.0375                 1.0581
 Frc consts  --      5.8771                 5.7570                 5.8991
 IR Inten    --      7.7160                24.3712                98.7644

                     76                     77                     78
                      A                      A                      A
 Frequencies --   3098.5785              3118.6019              3138.3163
 Red. masses --      1.1039                 1.1072                 1.1043
 Frc consts  --      6.2444                 6.3443                 6.4082
 IR Inten    --      0.2007                38.0521                97.1739

                     79                     80                     81
                      A                      A                      A
 Frequencies --   3145.2620              3239.4302              3241.7612
 Red. masses --      1.1025                 1.0943                 1.0926
 Frc consts  --      6.4261                 6.7657                 6.7651
 IR Inten    --     46.6275                 5.5610                 2.8066

                     82                     83                     84
                      A                      A                      A
 Frequencies --   3281.1992              3604.5121              3631.9357
 Red. masses --      1.0927                 1.0786                 1.0795
 Frc consts  --      6.9314                 8.2568                 8.3896
 IR Inten    --     10.3830                61.8544               223.1508

 - Thermochemistry -
 -------------------
 Temperature   298.150 Kelvin.  Pressure   1.00000 Atm.
 Atom     1 has atomic number  6 and mass  12.00000

 Molecular mass:   280.05903 amu.
 Principal axes and moments of inertia in atomic units:
                           1         2         3
     Eigenvalues --  3114.48993********************
           X            0.99985   0.01713  -0.00063
           Y           -0.01713   0.99985   0.00356
           Z            0.00069  -0.00355   0.99999
 This molecule is an asymmetric top.
 Rotational symmetry number  1.
 Warning -- assumption of classical behavior for rotation
           may cause significant error
 Rotational temperatures (Kelvin)      0.02781     0.00697     0.00573
 Rotational constants (GHZ):           0.57947     0.14528     0.11945
 Zero-point vibrational energy     593477.3 (Joules/Mol)
                                  141.84449 (Kcal/Mol)
 Warning -- explicit consideration of  27 degrees of freedom as
           vibrations may cause significant error
 Vibrational temperatures:     20.81    23.70    37.00    68.40    85.10
          (Kelvin)             96.05   160.76   187.24   198.25   205.72
                              284.13   325.36   340.46   345.85   370.49
                              471.05   479.45   485.21   521.94   523.18
                              621.93   672.86   684.40   733.22   743.92
                              826.21   863.49   928.88   939.94  1016.18
                             1029.33  1091.47  1118.49  1140.50  1231.91
                             1274.11  1303.31  1305.88  1319.41  1332.81
                             1390.42  1458.25  1511.11  1556.20  1635.93
                             1643.76  1650.37  1670.82  1688.65  1701.47
                             1712.32  1808.72  1850.34  1854.41  1866.31
                             1919.57  1936.35  1943.51  1986.64  2038.19
                             2048.96  2121.01  2138.72  2158.13  2171.29
                             2177.58  2201.97  2264.84  2276.03  2399.31
                             2419.22  2450.25  4414.08  4415.47  4425.89
                             4458.16  4486.97  4515.34  4525.33  4660.82
                             4664.17  4720.91  5186.09  5225.55

 Zero-point correction=                           0.226044 (Hartree/Particle)
 Thermal correction to Energy=                    0.244169
 Thermal correction to Enthalpy=                  0.245113
 Thermal correction to Gibbs Free Energy=         0.175222
 Sum of electronic and zero-point Energies=          -1370.592070
 Sum of electronic and thermal Energies=             -1370.573945
 Sum of electronic and thermal Enthalpies=           -1370.573001
 Sum of electronic and thermal Free Energies=        -1370.642891

                     E (Thermal)             CV                S
                      KCal/Mol        Cal/Mol-Kelvin    Cal/Mol-Kelvin
 Total                  153.218             64.575            147.098
 Electronic               0.000              0.000              0.000
 Translational            0.889              2.981             42.788
 Rotational               0.889              2.981             34.724
 Vibrational            151.441             58.614             69.586
 Vibration     1          0.593              1.986              7.278
 Vibration     2          0.593              1.986              7.020
 Vibration     3          0.593              1.985              6.135
 Vibration     4          0.595              1.979              4.917
 Vibration     5          0.597              1.974              4.485
 Vibration     6          0.598              1.970              4.247
 Vibration     7          0.607              1.940              3.239
 Vibration     8          0.612              1.923              2.944
 Vibration     9          0.614              1.916              2.834
 Vibration    10          0.616              1.910              2.764
 Vibration    11          0.637              1.843              2.156
 Vibration    12          0.650              1.801              1.909
 Vibration    13          0.656              1.785              1.828
 Vibration    14          0.657              1.779              1.800
 Vibration    15          0.667              1.750              1.679
 Vibration    16          0.711              1.621              1.273
 Vibration    17          0.715              1.609              1.244
 Vibration    18          0.718              1.601              1.225
 Vibration    19          0.737              1.549              1.110
 Vibration    20          0.737              1.547              1.107
 Vibration    21          0.793              1.400              0.851
 Vibration    22          0.825              1.322              0.744
 Vibration    23          0.832              1.304              0.722
 Vibration    24          0.865              1.229              0.635
 Vibration    25          0.872              1.212              0.617
 Vibration    26          0.931              1.087              0.496
 Vibration    27          0.958              1.031              0.449

                           ! Non-Optimized Parameters !
 Normal termination of Gaussian 16 at Tue Sep 15 14:27:40 2020.
