 Gaussian 16, Revision C.01,

 ----------------------------------------------------------------------
 # M062X/6-311+G* SCF=Tight INT(grid=ultrafine) OPT IOP(2/17=4) Empiric
 alDispersion=GD3 SCRF=(SMD,Solvent=n-Pentadecane) MaxDisk=10000MB
 ----------------------------------------------------------------------

 -----------------------------------------
 NM3_c2.M062X_6-311pGd_opt_Pentadecane_GD3
 -----------------------------------------
 Symbolic Z-matrix:
 Charge =  0 Multiplicity = 1

 SCF Done:  E(RM062X) =  -1370.81539743     A.U. after   15 cycles
 SCF Done:  E(RM062X) =  -1370.81539761     A.U. after   10 cycles
 SCF Done:  E(RM062X) =  -1370.81539770     A.U. after    9 cycles
 SCF Done:  E(RM062X) =  -1370.81539778     A.U. after    9 cycles
 SCF Done:  E(RM062X) =  -1370.81539780     A.U. after   10 cycles
 SCF Done:  E(RM062X) =  -1370.81539786     A.U. after   10 cycles
 Optimization completed.
    -- Stationary point found.
 Normal termination of Gaussian 16 at Tue Sep 15 11:15:47 2020.
 Gaussian 16:  ES64L-G16RevC.01  3-Jul-2019

 ----------------------------------------------------------------------
 # M062X/6-311+G* SCF=Tight INT(grid=ultrafine) EmpiricalDispersion=GD3
  SCRF=(SMD,Solvent=n-Pentadecane) Freq=Noraman MaxDisk=10000MB geom=ch
 eck guess=read IOP(2/17=4)
 ----------------------------------------------------------------------

 -----------------------------------------
 NM3_c2.M062X_6-311pGd_opt_Pentadecane_GD3
 -----------------------------------------
 Structure from the checkpoint file:  "NM3_c2.M062X_6-311pGd_opt_Pentadecane_GD3.chk"
 Charge =  0 Multiplicity = 1

                         Standard orientation:
 ---------------------------------------------------------------------
 Center     Atomic      Atomic             Coordinates (Angstroms)
 Number     Number       Type             X           Y           Z
 ---------------------------------------------------------------------
      1          6           0        0.131948   -0.042930   -0.014366
      2          7           0       -1.167550   -0.550670   -0.003481
      3          6           0       -2.360265    0.163762   -0.010111
      4          8           0       -2.415819    1.377291   -0.057761
      5          7           0       -3.468216   -0.631262    0.019227
      6          6           0       -4.793190   -0.036610    0.132641
      7          6           0       -5.867533   -1.086419   -0.110429
      8          6           0       -7.265670   -0.489772    0.003224
      9          6           0        1.177636   -0.974481   -0.035256
     10          6           0        2.492339   -0.542096   -0.043371
     11          6           0        2.817435    0.809530   -0.027024
     12          6           0        1.766647    1.712674   -0.006387
     13          6           0        0.434300    1.323318   -0.000347
     14          1           0       -1.235104   -1.557207   -0.057817
     15          1           0       -3.372798   -1.600288    0.287129
     16          1           0       -4.867287    0.763131   -0.606231
     17          1           0       -4.924275    0.422895    1.119216
     18          1           0       -5.754810   -1.899854    0.615858
     19          1           0       -5.721833   -1.522926   -1.103245
     20          1           0       -7.436472   -0.067782    0.996889
     21          1           0       -8.033293   -1.245450   -0.172895
     22          1           0       -7.412497    0.309876   -0.727168
     23          1           0        0.955720   -2.035961   -0.049056
     24         17           0        2.129863    3.418469    0.007372
     25          1           0       -0.353156    2.060768    0.009636
     26          6           0        3.596818   -1.558772   -0.000249
     27          1           0        3.845821    1.146513   -0.035895
     28          9           0        4.700949   -1.133555   -0.627759
     29          9           0        3.958909   -1.845330    1.263422
     30          9           0        3.239746   -2.721304   -0.566755
 ---------------------------------------------------------------------

 SCF Done:  E(RM062X) =  -1370.81539786     A.U. after    2 cycles

 The electronic state is 1-A.
 Alpha  occ. eigenvalues -- -102.68144 -25.28539 -25.28433 -25.28044 -19.59832
 Alpha  occ. eigenvalues --  -14.79925 -14.77687 -10.81018 -10.68649 -10.62205
 Alpha  occ. eigenvalues --  -10.62096 -10.58800 -10.57424 -10.57147 -10.56844
 Alpha  occ. eigenvalues --  -10.56260 -10.54305 -10.52870  -9.82415  -7.54926
 Alpha  occ. eigenvalues --   -7.54254  -7.54239  -1.47779  -1.38499  -1.38009
 Alpha  occ. eigenvalues --   -1.19233  -1.07625  -1.04203  -1.00899  -0.95884
 Alpha  occ. eigenvalues --   -0.90108  -0.88316  -0.85196  -0.82008  -0.78989
 Alpha  occ. eigenvalues --   -0.74692  -0.72725  -0.70097  -0.70067  -0.69479
 Alpha  occ. eigenvalues --   -0.69295  -0.65600  -0.64060  -0.60062  -0.59602
 Alpha  occ. eigenvalues --   -0.58334  -0.57961  -0.56674  -0.55705  -0.54342
 Alpha  occ. eigenvalues --   -0.54020  -0.53566  -0.53283  -0.52053  -0.51433
 Alpha  occ. eigenvalues --   -0.51398  -0.49423  -0.49139  -0.47713  -0.46383
 Alpha  occ. eigenvalues --   -0.46224  -0.44201  -0.43216  -0.42796  -0.41096
 Alpha  occ. eigenvalues --   -0.40413  -0.38664  -0.38563  -0.35994  -0.33403
 Alpha  occ. eigenvalues --   -0.32025  -0.28834
 Alpha virt. eigenvalues --   -0.01212  -0.00301  -0.00028   0.01848   0.02175
 Alpha virt. eigenvalues --    0.03061   0.03260   0.03452   0.04157   0.04721
 Alpha virt. eigenvalues --    0.05094   0.05361   0.05718   0.06473   0.06672

 Mulliken charges:
               1
     1  C   -0.586470
     2  N   -0.403241
     3  C    0.183156
     4  O   -0.368396
     5  N   -0.309643
     6  C   -0.523303
     7  C   -0.130516
     8  C   -1.034156
     9  C   -0.304944
    10  C   -1.058352
    11  C   -0.100309
    12  C    0.640157
    13  C   -0.298476
    14  H    0.381029
    15  H    0.356130
    16  H    0.271796
    17  H    0.269941
    18  H    0.242649
    19  H    0.266087
    20  H    0.264385
    21  H    0.273394
    22  H    0.266293
    23  H    0.277998
    24  Cl   0.418256
    25  H    0.339680
    26  C    0.629709
    27  H    0.316108
    28  F   -0.101474
    29  F   -0.059059
    30  F   -0.118431
 Sum of Mulliken charges =  -0.00000

 Dipole moment (field-independent basis, Debye):
    X=             -5.1819    Y=             -4.3292    Z=              0.4044  Tot=              6.7644
 Quadrupole moment (field-independent basis, Debye-Ang):
   XX=           -104.8828   YY=           -115.5736   ZZ=           -115.5166
   XY=             15.7622   XZ=             -2.1657   YZ=             -0.4957

  Exact polarizability:     237.040      11.394     195.207      -1.121       0.636     110.466
 Approx polarizability:     215.696       8.723     218.949      -1.024       0.406     131.271

                      1                      2                      3
                      A                      A                      A
 Frequencies --     16.5679                18.6470                36.9504
 Red. masses --      6.3856                 7.8762                 3.3331
 Frc consts  --      0.0010                 0.0016                 0.0027
 IR Inten    --      0.1248                 0.3290                 7.9885

                      4                      5                      6
                      A                      A                      A
 Frequencies --     54.1520                61.5450                79.4353
 Red. masses --      4.9207                 3.7060                 2.7508
 Frc consts  --      0.0085                 0.0083                 0.0102
 IR Inten    --      3.5677                 5.0308                 2.2201

                      7                      8                      9
                      A                      A                      A
 Frequencies --    114.8677               127.9225               143.1296
 Red. masses --      7.6553                 6.4348                 9.1923
 Frc consts  --      0.0595                 0.0620                 0.1110
 IR Inten    --      0.1953                 7.7340                 2.2622

                     10                     11                     12
                      A                      A                      A
 Frequencies --    181.4237               193.9507               228.8367
 Red. masses --      3.1854                 5.1647                 7.4064
 Frc consts  --      0.0618                 0.1145                 0.2285
 IR Inten    --      1.8103                 0.3128                 0.5739

                     13                     14                     15
                      A                      A                      A
 Frequencies --    239.6481               247.9837               252.8561
 Red. masses --      3.5389                 1.2186                 3.9665
 Frc consts  --      0.1197                 0.0442                 0.1494
 IR Inten    --      1.0037                 0.2732                 6.5588

                     16                     17                     18
                      A                      A                      A
 Frequencies --    323.5459               324.7346               331.9697
 Red. masses --      6.5113                 1.7384                 7.0648
 Frc consts  --      0.4016                 0.1080                 0.4587
 IR Inten    --      6.4330                71.6560                 0.8090

                     19                     20                     21
                      A                      A                      A
 Frequencies --    345.1208               373.9649               431.0611
 Red. masses --      3.0273                 5.4557                 7.7586
 Frc consts  --      0.2124                 0.4495                 0.8494
 IR Inten    --     10.5915                15.5547                 2.4814

                     22                     23                     24
                      A                      A                      A
 Frequencies --    470.3683               476.8640               515.5862
 Red. masses --      6.7348                 4.3509                 6.7196
 Frc consts  --      0.8779                 0.5829                 1.0524
 IR Inten    --      4.9334                 1.4092                23.5296

                     25                     26                     27
                      A                      A                      A
 Frequencies --    533.6728               582.4846               600.2710
 Red. masses --      1.2900                 5.3640                10.1128
 Frc consts  --      0.2165                 1.0723                 2.1469
 IR Inten    --    136.9503                 0.0708                 0.7540

                     28                     29                     30
                      A                      A                      A
 Frequencies --    651.1078               651.8653               711.0906
 Red. masses --      5.8428                 5.2641                 2.2997
 Frc consts  --      1.4594                 1.3179                 0.6851
 IR Inten    --     23.1774                 1.2776                32.6345

                     31                     32                     33
                      A                      A                      A
 Frequencies --    719.4385               759.4464               779.4330
 Red. masses --     12.2758                 1.1989                 4.8990
 Frc consts  --      3.7436                 0.4074                 1.7535
 IR Inten    --     50.7651                 9.6438                 6.1055

                     34                     35                     36
                      A                      A                      A
 Frequencies --    796.8140               860.8041               885.5754
 Red. masses --      6.5169                10.4368                 1.5007
 Frc consts  --      2.4379                 4.5564                 0.6934
 IR Inten    --      9.1466                54.6130                32.7507

                     37                     38                     39
                      A                      A                      A
 Frequencies --    895.6949               905.5868               925.8594
 Red. masses --      1.6386                 1.1805                 1.4883
 Frc consts  --      0.7745                 0.5704                 0.7517
 IR Inten    --     41.7476                 2.7222                 6.7988

                     40                     41                     42
                      A                      A                      A
 Frequencies --    926.8141               967.3730              1013.5485
 Red. masses --      1.7460                 4.4617                 6.0171
 Frc consts  --      0.8837                 2.4600                 3.6419
 IR Inten    --      1.7697                56.1452                10.4515

                     43                     44                     45
                      A                      A                      A
 Frequencies --   1050.0103              1080.9499              1140.2881
 Red. masses --      4.2182                 2.6168                 2.4498
 Frc consts  --      2.7401                 1.8015                 1.8768
 IR Inten    --     23.2472                30.2925                71.1981

                     46                     47                     48
                      A                      A                      A
 Frequencies --   1148.3730              1159.2842              1170.0073
 Red. masses --      1.8261                 2.1149                 2.7912
 Frc consts  --      1.4188                 1.6747                 2.2512
 IR Inten    --     12.7632                11.7532                28.3477

                     49                     50                     51
                      A                      A                      A
 Frequencies --   1176.7143              1182.8134              1216.2326
 Red. masses --     11.6742                 1.7674                 6.6380
 Frc consts  --      9.5240                 1.4569                 5.7852
 IR Inten    --    323.8867                 1.6096               336.9081

                     52                     53                     54
                      A                      A                      A
 Frequencies --   1243.5512              1284.4858              1289.3526
 Red. masses --      1.7645                 1.9734                 1.6301
 Frc consts  --      1.6076                 1.9183                 1.5966
 IR Inten    --    352.3524                38.8735                97.1017

                     55                     56                     57
                      A                      A                      A
 Frequencies --   1294.5440              1332.7589              1347.6910
 Red. masses --      1.6245                 1.1443                 1.3416
 Frc consts  --      1.6040                 1.1975                 1.4356
 IR Inten    --     90.7674                36.9757                23.3072

                     58                     59                     60
                      A                      A                      A
 Frequencies --   1354.3561              1381.8152              1424.3870
 Red. masses --      2.3501                 5.3905                 1.4974
 Frc consts  --      2.5398                 6.0643                 1.7900
 IR Inten    --     24.1653               601.9794                 2.5288

                     61                     62                     63
                      A                      A                      A
 Frequencies --   1431.5353              1476.6280              1503.2283
 Red. masses --      1.3238                 3.0298                 1.0629
 Frc consts  --      1.5984                 3.8922                 1.4151
 IR Inten    --      3.1343                22.5268                11.2259

                     64                     65                     66
                      A                      A                      A
 Frequencies --   1517.6468              1518.5884              1520.0053
 Red. masses --      1.1140                 2.0303                 1.3319
 Frc consts  --      1.5118                 2.7586                 1.8131
 IR Inten    --     46.3891               153.8439                54.7531

                     67                     68                     69
                      A                      A                      A
 Frequencies --   1533.7906              1561.6042              1607.3366
 Red. masses --      1.0971                 1.8963                 2.0915
 Frc consts  --      1.5207                 2.7246                 3.1836
 IR Inten    --      7.7458               684.2460               684.9352

                     70                     71                     72
                      A                      A                      A
 Frequencies --   1671.7900              1688.5473              1800.0465
 Red. masses --      4.2938                 6.2757                 7.1414
 Frc consts  --      7.0706                10.5424                13.6333
 IR Inten    --     66.1587                80.8211               383.1207

                     73                     74                     75
                      A                      A                      A
 Frequencies --   3055.0463              3058.3182              3070.6926
 Red. masses --      1.0633                 1.0712                 1.0372
 Frc consts  --      5.8473                 5.9032                 5.7622
 IR Inten    --     14.0742                43.9341                34.7526

                     76                     77                     78
                      A                      A                      A
 Frequencies --   3098.9094              3131.8439              3141.0774
 Red. masses --      1.0966                 1.0981                 1.1026
 Frc consts  --      6.2048                 6.3461                 6.4096
 IR Inten    --     15.3846                 1.3295                60.0698

                     79                     80                     81
                      A                      A                      A
 Frequencies --   3147.0967              3229.3343              3251.8326
 Red. masses --      1.1022                 1.0909                 1.0935
 Frc consts  --      6.4317                 6.7030                 6.8125
 IR Inten    --     31.8771                 2.3067                 4.3764

                     82                     83                     84
                      A                      A                      A
 Frequencies --   3289.5733              3644.8405              3648.0234
 Red. masses --      1.0924                 1.0774                 1.0772
 Frc consts  --      6.9648                 8.4333                 8.4458
 IR Inten    --     22.9932                10.6247                85.0185

 - Thermochemistry -
 -------------------
 Temperature   298.150 Kelvin.  Pressure   1.00000 Atm.
 Atom     1 has atomic number  6 and mass  12.00000

 Molecular mass:   280.05903 amu.
 Principal axes and moments of inertia in atomic units:
                           1         2         3
     Eigenvalues --  3127.64660********************
           X            0.99985   0.01755  -0.00052
           Y           -0.01755   0.99985   0.00023
           Z            0.00052  -0.00022   1.00000
 This molecule is an asymmetric top.
 Rotational symmetry number  1.
 Warning -- assumption of classical behavior for rotation
           may cause significant error
 Rotational temperatures (Kelvin)      0.02769     0.00696     0.00569
 Rotational constants (GHZ):           0.57703     0.14501     0.11857
 Zero-point vibrational energy     595937.5 (Joules/Mol)
                                  142.43247 (Kcal/Mol)
 Warning -- explicit consideration of  27 degrees of freedom as
           vibrations may cause significant error
 Vibrational temperatures:     23.84    26.83    53.16    77.91    88.55
          (Kelvin)            114.29   165.27   184.05   205.93   261.03
                              279.05   329.25   344.80   356.79   363.80
                              465.51   467.22   477.63   496.55   538.05
                              620.20   676.76   686.10   741.81   767.84
                              838.07   863.66   936.80   937.89  1023.10
                             1035.11  1092.67  1121.43  1146.44  1238.51
                             1274.15  1288.71  1302.94  1332.11  1333.48
                             1391.83  1458.27  1510.73  1555.25  1640.62
                             1652.25  1667.95  1683.38  1693.03  1701.80
                             1749.89  1789.19  1848.09  1855.09  1862.56
                             1917.54  1939.03  1948.62  1988.12  2049.38
                             2059.66  2124.54  2162.81  2183.56  2184.91
                             2186.95  2206.78  2246.80  2312.60  2405.33
                             2429.44  2589.87  4395.53  4400.24  4418.04
                             4458.64  4506.02  4519.31  4527.97  4646.29
                             4678.66  4732.96  5244.11  5248.69

 Zero-point correction=                           0.226981 (Hartree/Particle)
 Thermal correction to Energy=                    0.244936
 Thermal correction to Enthalpy=                  0.245880
 Thermal correction to Gibbs Free Energy=         0.177162
 Sum of electronic and zero-point Energies=          -1370.588417
 Sum of electronic and thermal Energies=             -1370.570462
 Sum of electronic and thermal Enthalpies=           -1370.569518
 Sum of electronic and thermal Free Energies=        -1370.638235

                     E (Thermal)             CV                S
                      KCal/Mol        Cal/Mol-Kelvin    Cal/Mol-Kelvin
 Total                  153.700             64.369            144.629
 Electronic               0.000              0.000              0.000
 Translational            0.889              2.981             42.788
 Rotational               0.889              2.981             34.737
 Vibrational            151.922             58.408             67.104
 Vibration     1          0.593              1.986              7.008
 Vibration     2          0.593              1.986              6.773
 Vibration     3          0.594              1.982              5.416
 Vibration     4          0.596              1.976              4.660
 Vibration     5          0.597              1.973              4.407
 Vibration     6          0.600              1.963              3.905
 Vibration     7          0.608              1.937              3.185
 Vibration     8          0.611              1.925              2.977
 Vibration     9          0.616              1.910              2.762
 Vibration    10          0.630              1.865              2.314
 Vibration    11          0.635              1.848              2.190
 Vibration    12          0.652              1.797              1.888
 Vibration    13          0.657              1.780              1.805
 Vibration    14          0.662              1.766              1.745
 Vibration    15          0.664              1.758              1.711
 Vibration    16          0.708              1.628              1.292
 Vibration    17          0.709              1.626              1.286
 Vibration    18          0.714              1.612              1.250
 Vibration    19          0.723              1.585              1.188
 Vibration    20          0.745              1.526              1.063
 Vibration    21          0.792              1.403              0.855
 Vibration    22          0.827              1.316              0.737
 Vibration    23          0.833              1.301              0.719
 Vibration    24          0.871              1.215              0.620
 Vibration    25          0.889              1.176              0.579
 Vibration    26          0.939              1.069              0.481
 Vibration    27          0.958              1.031              0.449

                           ! Non-Optimized Parameters !
 Normal termination of Gaussian 16 at Tue Sep 15 14:52:45 2020.
