 Q-Chem 5.0, Q-Chem, Inc., Pleasanton, CA (2017)
 Q-Chem 5.0.0 for Intel X86 EM64T Linux

User input:
--------------------------------------------------------------
$molecule
  0 1
    C     -5.9917559386    1.4037444778    0.2197461216
    N     -4.7578541047    0.7460649250    0.1929966920
    C     -3.5000833009    1.3193357281    0.0290719130
    O     -3.3161077663    2.5038648612   -0.1445555856
    N     -2.4820232695    0.3995303926    0.0543648044
    C     -1.1036940264    0.8720243334    0.0124436774
    C     -0.1468817783   -0.2968459547   -0.1699363588
    C      1.3039613389    0.1711661647   -0.2242261859
    C     -7.1407501578    0.6054546668    0.2278383191
    C     -8.3934617065    1.1937580325    0.2713665937
    C     -8.5481429311    2.5736763387    0.3099607182
    C     -7.3963530177    3.3457470451    0.3011562770
    C     -6.1225988470    2.7958059618    0.2569507217
    H     -4.8093737332   -0.2597002838    0.1333240809
    H     -2.6410250895   -0.4754431068    0.5328264370
    H     -0.8594783864    1.4323522679    0.9227204852
    H     -1.0199507232    1.5704103892   -0.8216766227
    H     -0.4080831431   -0.8312513484   -1.0880913194
    H     -0.2716039058   -1.0066713193    0.6565473139
    H      1.4618174936    0.8622386861   -1.0555069384
    H      1.9861282691   -0.6698117832   -0.3565457817
    H      1.5868694205    0.6881737164    0.6957852285
    H     -7.0553898977   -0.4753991720    0.1932248511
    Cl    -7.5500125150    5.0788886510    0.3425534980
    H     -5.2511287529    3.4316651731    0.2401841042
    C     -9.6111606094    0.3161733621    0.3424479825
    H     -9.5274270832    3.0330119416    0.3369036994
    F     -9.9428440247    0.0363858490    1.6140519724
    F    -10.6799633219    0.8929940540   -0.2192244320
    F     -9.4193184912   -0.8603140499   -0.2726022666

$end

$rem

    JOBTYPE               sp
    METHOD                CCSD(T)
    BASIS                 6-31+G*
    CC_BACKEND            XM

    MEM_TOTAL             60000
$end
--------------------------------------------------------------

             Standard Nuclear Orientation (Angstroms)
    I     Atom           X                Y                Z
 ----------------------------------------------------------------
    1      C       0.1362004071     0.0567609517     0.0300454320
    2      N      -1.1633679044     0.5714905913     0.0741732431
    3      C      -2.3557552162    -0.1387516931    -0.0319707060
    4      O      -2.4145573000    -1.3354063355    -0.2099110173
    5      N      -3.4678154231     0.6604224197     0.0561805670
    6      C      -4.7847751996     0.0360144166     0.0792240073
    7      C      -5.8748098328     1.0907989261    -0.0402081623
    8      C      -7.2648743188     0.4627540736    -0.0257558909
    9      C       1.1872923148     0.9792701368    -0.0112150436
   10      C       2.4986220265     0.5354920092    -0.0387313299
   11      C       2.8088488510    -0.8184441484    -0.0243605998
   12      C       1.7520058068    -1.7152118919     0.0166405309
   13      C       0.4240609450    -1.3119164692     0.0441043211
   14      H      -1.2281239329     1.5769994275     0.0238007810
   15      H      -3.3831956718     1.5448663201     0.5361641313
   16      H      -4.9168370951    -0.5536616897     0.9941307158
   17      H      -4.8330544542    -0.6623750166    -0.7576953508
   18      H      -5.7233967459     1.6566770256    -0.9641561387
   19      H      -5.7875469463     1.8052137738     0.7871246199
   20      H      -7.3873696639    -0.2367292219    -0.8559639941
   21      H      -8.0429972711     1.2223587092    -0.1131033218
   22      H      -7.4396814635    -0.0882919768     0.9013608796
   23      H       0.9795940228     2.0438291569    -0.0286792699
   24      Cl      2.1009693536    -3.4202510947     0.0297002702
   25      H      -0.3703010042    -2.0417344498     0.0644264722
   26      C       3.6122842998     1.5441500093    -0.0196678672
   27      H       3.8335245937    -1.1647611504    -0.0529390391
   28      F       3.9763421092     1.8519157320     1.2365223330
   29      F       4.7082791234     1.0946838816    -0.6420124636
   30      F       3.2579396357     2.6952047624    -0.6101978428
 ----------------------------------------------------------------

   16   -1365.1687193059      3.26E-09 Convergence criterion met
 Total energy in the final basis set = -1365.1687193059
 CCSD total energy           = -1367.82892789
 CCSD(T) total energy       = -1367.92840728

                    Orbital Energies (a.u.)
 --------------------------------------------------------------

 Alpha MOs
 -- Occupied --
******* -26.360 -26.359 -26.355 -20.550 -15.631 -15.608 -11.526
-11.408 -11.325 -11.324 -11.288 -11.275 -11.272 -11.268 -11.261
-11.244 -11.232 -10.569  -8.039  -8.035  -8.035  -1.741  -1.646
 -1.640  -1.426  -1.289  -1.248  -1.205  -1.143  -1.082  -1.062
 -1.023  -0.979  -0.950  -0.891  -0.868  -0.836  -0.831  -0.829
 -0.823  -0.787  -0.764  -0.722  -0.720  -0.712  -0.704  -0.678
 -0.675  -0.667  -0.659  -0.653  -0.648  -0.631  -0.626  -0.613
 -0.599  -0.585  -0.570  -0.562  -0.553  -0.535  -0.525  -0.508
 -0.501  -0.494  -0.463  -0.460  -0.457  -0.416  -0.362  -0.331

          Ground-State Mulliken Net Atomic Charges

     Atom                 Charge (a.u.)
  ----------------------------------------
      1 C                    -0.124894
      2 N                    -0.810727
      3 C                     0.699199
      4 O                    -0.635070
      5 N                    -0.691307
      6 C                    -0.078384
      7 C                    -0.274916
      8 C                    -0.672793
      9 C                    -0.002609
     10 C                    -1.310599
     11 C                    -0.464502
     12 C                     0.198215
     13 C                     0.125466
     14 H                     0.459216
     15 H                     0.417892
     16 H                     0.202790
     17 H                     0.225739
     18 H                     0.207501
     19 H                     0.180947
     20 H                     0.198727
     21 H                     0.200026
     22 H                     0.197004
     23 H                     0.254613
     24 Cl                    0.258104
     25 H                     0.334765
     26 C                     1.787157
     27 H                     0.289850
     28 F                    -0.364829
     29 F                    -0.399215
     30 F                    -0.407366
  ----------------------------------------
  Sum of atomic charges =     0.000000

                    Cartesian Multipole Moments
 -----------------------------------------------------------------
    Charge (ESU x 10^10)
                -0.0000
    Dipole Moment (Debye)
         X      -4.4696      Y       3.7551      Z       0.8564
       Tot       5.9001
    Quadrupole Moments (Debye-Ang)
        XX    -107.1128     XY     -13.9459     YY    -116.8312
        XZ      -3.3149     YZ       0.5396     ZZ    -115.5523

 Total job time:  95886.32s(wall), 324654.92s(cpu)
        *  Thank you very much for using Q-Chem.  Have a nice day.  *
