 Gaussian 16, Revision C.01,
 Gaussian 16:  ES64L-G16RevC.01  3-Jul-2019

 ---------------------------------------------------------------------
 # DSDPBEP86/AUG-cc-PVTZ SCF=Tight INT(grid=ultrafine) MaxDisk=60000MB
 ---------------------------------------------------------------------

 --------------------------
 CP19.DSDPBEP86_AUG-cc-PVTZ
 --------------------------
 Symbolic Z-matrix:
 Charge =  0 Multiplicity = 1

                         Standard orientation:
 ---------------------------------------------------------------------
 Center     Atomic      Atomic             Coordinates (Angstroms)
 Number     Number       Type             X           Y           Z
 ---------------------------------------------------------------------
      1          6           0       -0.185521   -0.754717   -0.021846
      2          7           0       -1.563890   -0.975466   -0.054157
      3          6           0       -2.577026   -0.024032    0.037749
      4          8           0       -2.378781    1.158839    0.203439
      5          7           0       -3.834366   -0.567486   -0.047666
      6          6           0       -4.986164    0.325417   -0.082303
      7          6           0       -6.278045   -0.468081    0.045525
      8          6           0       -7.499780    0.444964    0.019528
      9          6           0        0.389864    0.519649   -0.037883
     10          6           0        1.771592    0.639727   -0.026485
     11          6           0        2.609305   -0.475190    0.002566
     12          6           0        2.021391   -1.736751    0.019844
     13          6           0        0.646750   -1.880085    0.008172
     14          1           0       -1.844033   -1.943174    0.000076
     15          1           0       -3.940591   -1.453311   -0.520756
     16          1           0       -4.987322    0.918963   -1.004200
     17          1           0       -4.883482    1.027647    0.746417
     18          1           0       -6.252700   -1.042261    0.976389
     19          1           0       -6.346333   -1.194246   -0.773337
     20          1           0       -7.468788    1.164146    0.841307
     21          1           0       -8.423633   -0.127590    0.113117
     22          1           0       -7.551000    1.009870   -0.914280
     23          1           0       -0.228016    1.403637   -0.051191
     24         17           0        2.433221    2.246466   -0.048785
     25          6           0        4.106596   -0.345088    0.015975
     26          1           0        2.652003   -2.616193    0.043173
     27          1           0        0.212579   -2.874446    0.020648
     28          9           0        4.698774   -1.550216    0.044506
     29          9           0        4.572989    0.287903   -1.069246
     30          9           0        4.550551    0.328103    1.086092
 ---------------------------------------------------------------------

 SCF Done:  E(RDSDPBEP86) =  -1367.76781877     A.U. after   14 cycles
 E2(DSDPBEP86) =    -0.1695900734D+01 E(DSDPBEP86) =    -0.13694637195012D+04

 The electronic state is 1-A.
 Alpha  occ. eigenvalues -- -103.57423 -25.70753 -25.70145 -25.70139 -19.98278
 Alpha  occ. eigenvalues --  -15.13913 -15.11702 -11.08386 -10.97665 -10.90952
 Alpha  occ. eigenvalues --  -10.90363 -10.86025 -10.85666 -10.85536 -10.84450
 Alpha  occ. eigenvalues --  -10.83762 -10.83136 -10.81762 -10.14932  -7.72617
 Alpha  occ. eigenvalues --   -7.72135  -7.72111  -1.57065  -1.47701  -1.47330
 Alpha  occ. eigenvalues --   -1.29247  -1.16792  -1.13128  -1.09282  -1.02567
 Alpha  occ. eigenvalues --   -0.97804  -0.95959  -0.92277  -0.87750  -0.84796
 Alpha  occ. eigenvalues --   -0.79813  -0.77840  -0.75356  -0.74347  -0.73167
 Alpha  occ. eigenvalues --   -0.72897  -0.71499  -0.69144  -0.66201  -0.61796
 Alpha  occ. eigenvalues --   -0.61582  -0.61167  -0.60028  -0.59097  -0.58459
 Alpha  occ. eigenvalues --   -0.57271  -0.57054  -0.56792  -0.56134  -0.55207
 Alpha  occ. eigenvalues --   -0.54507  -0.54025  -0.52591  -0.51202  -0.49736
 Alpha  occ. eigenvalues --   -0.49118  -0.47312  -0.47061  -0.45486  -0.44763
 Alpha  occ. eigenvalues --   -0.44075  -0.40807  -0.40746  -0.39656  -0.36611
 Alpha  occ. eigenvalues --   -0.32512  -0.30334
 Alpha virt. eigenvalues --    0.00034   0.01410   0.02261   0.02420   0.02987
 Alpha virt. eigenvalues --    0.03381   0.03728   0.04009   0.04532   0.04598
 Alpha virt. eigenvalues --    0.05088   0.05365   0.05926   0.06636   0.06809

 Mulliken charges:
               1
     1  C    0.770217
     2  N   -0.357084
     3  C    0.189960
     4  O   -0.784845
     5  N   -0.120289
     6  C   -0.137506
     7  C   -0.410058
     8  C   -0.979201
     9  C   -0.773361
    10  C    0.833299
    11  C    0.211142
    12  C   -0.656513
    13  C   -0.654124
    14  H    0.009178
    15  H    0.052016
    16  H    0.287096
    17  H    0.307994
    18  H    0.252831
    19  H    0.235277
    20  H    0.277800
    21  H    0.276496
    22  H    0.274799
    23  H    0.553225
    24  Cl  -0.445952
    25  C    1.204221
    26  H    0.323545
    27  H    0.442000
    28  F   -0.375259
    29  F   -0.403045
    30  F   -0.403860
 Sum of Mulliken charges =  -0.00000

 Dipole moment (field-independent basis, Debye):
    X=             -6.3467    Y=             -4.8843    Z=             -0.8155  Tot=              8.0500
 Quadrupole moment (field-independent basis, Debye-Ang):
   XX=           -107.4044   YY=           -105.9142   ZZ=           -113.9596
   XY=              6.2516   XZ=              3.0038   YZ=              0.4516

 Normal termination of Gaussian 16 at Wed Sep  9 20:31:42 2020.
