 Gaussian 09, Revision E.01,

 ----------------------------------------------------------------------
 # M062X/6-311+G* SCF=Tight INT(grid=ultrafine) OPT IOP(2/17=4) Empiric
 alDispersion=GD3 maxdisk=2147483648
 ----------------------------------------------------------------------

 ------------------------------
 CP19_c2.M062X_6-311pGd_opt_GD3
 ------------------------------
 Symbolic Z-matrix:
 Charge =  0 Multiplicity = 1

 SCF Done:  E(RM062X) =  -1370.79660840     A.U. after   16 cycles
 Optimization completed.
    -- Stationary point found.
 Normal termination of Gaussian 09 at Thu Nov 14 09:31:08 2019.
 Gaussian 09:  ES64L-G09RevE.01 30-Nov-2015

 ----------------------------------------------------------------------
 # M062X/6-311+G* SCF=Tight INT(grid=ultrafine) EmpiricalDispersion=GD3
  Freq=Noraman maxdisk=2147483648 geom=check guess=read IOP(2/17=4)
 ----------------------------------------------------------------------

 ------------------------------
 CP19_c2.M062X_6-311pGd_opt_GD3
 ------------------------------
 Structure from the checkpoint file:  "CP19_c2.M062X_6-311pGd_opt_GD3.chk"
 Charge =  0 Multiplicity = 1

                         Standard orientation:
 ---------------------------------------------------------------------
 Center     Atomic      Atomic             Coordinates (Angstroms)
 Number     Number       Type             X           Y           Z
 ---------------------------------------------------------------------
      1          6           0        0.226956    0.173145    0.025176
      2          7           0        1.568767    0.559214    0.050765
      3          6           0        2.686621   -0.266785   -0.040619
      4          8           0        2.629617   -1.464626   -0.208400
      5          7           0        3.870869    0.421091    0.047745
      6          6           0        5.120286   -0.329133    0.079774
      7          6           0        6.309309    0.613527   -0.032888
      8          6           0        7.630715   -0.148292   -0.009693
      9          6           0       -0.725624    1.199428   -0.004054
     10          6           0       -2.076313    0.906188   -0.008264
     11          6           0       -2.520171   -0.416437    0.014904
     12          6           0       -1.564773   -1.426749    0.042472
     13          6           0       -0.204307   -1.156546    0.047429
     14          1           0        1.734042    1.552932   -0.005232
     15          1           0        3.871308    1.311910    0.523395
     16          1           0        5.105682   -1.029994   -0.756376
     17          1           0        5.187965   -0.927713    0.995908
     18          1           0        6.287453    1.333483    0.793921
     19          1           0        6.220006    1.190922   -0.957799
     20          1           0        7.744593   -0.713288    0.918513
     21          1           0        8.480467    0.530806   -0.092222
     22          1           0        7.688753   -0.857001   -0.839086
     23          1           0       -0.415983    2.238630   -0.021652
     24         17           0       -3.196126    2.235351   -0.043290
     25          6           0       -3.983399   -0.757950    0.011185
     26          1           0       -1.893407   -2.458215    0.059513
     27          1           0        0.513418   -1.960947    0.060820
     28          9           0       -4.175882   -2.084778    0.037610
     29          9           0       -4.625160   -0.251855    1.074348
     30          9           0       -4.610108   -0.296699   -1.080700
 ---------------------------------------------------------------------

 SCF Done:  E(RM062X) =  -1370.79660840     A.U. after    2 cycles

 The electronic state is 1-A.
 Alpha  occ. eigenvalues -- -102.68832 -25.27659 -25.27090 -25.27087 -19.60777
 Alpha  occ. eigenvalues --  -14.80888 -14.78734 -10.80351 -10.69501 -10.63347
 Alpha  occ. eigenvalues --  -10.62537 -10.58514 -10.58258 -10.57503 -10.57436
 Alpha  occ. eigenvalues --  -10.55895 -10.55553 -10.54101  -9.83114  -7.55636
 Alpha  occ. eigenvalues --   -7.54942  -7.54928  -1.46819  -1.37455  -1.37045
 Alpha  occ. eigenvalues --   -1.20234  -1.08506  -1.05111  -1.01787  -0.95425
 Alpha  occ. eigenvalues --   -0.90932  -0.89158  -0.85632  -0.81883  -0.79103
 Alpha  occ. eigenvalues --   -0.74324  -0.73718  -0.70585  -0.69722  -0.69085
 Alpha  occ. eigenvalues --   -0.68635  -0.66661  -0.65281  -0.62556  -0.57930
 Alpha  occ. eigenvalues --   -0.57435  -0.57299  -0.56106  -0.55778  -0.55098
 Alpha  occ. eigenvalues --   -0.54220  -0.53092  -0.52826  -0.52632  -0.51501
 Alpha  occ. eigenvalues --   -0.50928  -0.50493  -0.49868  -0.48625  -0.47326
 Alpha  occ. eigenvalues --   -0.45722  -0.44477  -0.44264  -0.43270  -0.42245
 Alpha  occ. eigenvalues --   -0.41560  -0.39192  -0.39057  -0.36830  -0.34252
 Alpha  occ. eigenvalues --   -0.32236  -0.29647
 Alpha virt. eigenvalues --   -0.01461  -0.00953  -0.00705   0.00986   0.01877
 Alpha virt. eigenvalues --    0.02222   0.02748   0.02928   0.03299   0.04645
 Alpha virt. eigenvalues --    0.05076   0.05145   0.05629   0.06094   0.06471

 Mulliken charges:
               1
     1  C   -0.518226
     2  N   -0.366096
     3  C    0.135376
     4  O   -0.331522
     5  N   -0.276450
     6  C   -0.524195
     7  C   -0.116718
     8  C   -1.018358
     9  C   -0.484607
    10  C    1.013820
    11  C   -1.289681
    12  C   -0.293783
    13  C   -0.018744
    14  H    0.341070
    15  H    0.322963
    16  H    0.270985
    17  H    0.262880
    18  H    0.233005
    19  H    0.263108
    20  H    0.260359
    21  H    0.270015
    22  H    0.262083
    23  H    0.253800
    24  Cl   0.448486
    25  C    0.531512
    26  H    0.282653
    27  H    0.306635
    28  F   -0.140095
    29  F   -0.040338
    30  F   -0.039937
 Sum of Mulliken charges =  -0.00000

 Dipole moment (field-independent basis, Debye):
    X=              6.4373    Y=              3.1274    Z=              0.8801  Tot=              7.2107
 Quadrupole moment (field-independent basis, Debye-Ang):
   XX=           -109.9716   YY=           -108.8699   ZZ=           -115.0729
   XY=              9.7094   XZ=              3.1091   YZ=              0.2977

  Exact polarizability: 232.239  -6.866 156.955   0.943   0.082  99.499
 Approx polarizability: 223.963  -5.992 211.546   0.978   1.025 132.415

                      1                      2                      3
                      A                      A                      A
 Frequencies --     19.1643                24.7681                52.5270
 Red. masses --      5.2784                 2.8365                 7.9899
 Frc consts  --      0.0011                 0.0010                 0.0130
 IR Inten    --      0.4592                 4.6567                 1.5364

                      4                      5                      6
                      A                      A                      A
 Frequencies --     55.0326                56.2915                71.8457
 Red. masses --      4.3395                 5.0086                 2.9081
 Frc consts  --      0.0077                 0.0094                 0.0088
 IR Inten    --      2.9255                 0.1013                 2.5814

                      7                      8                      9
                      A                      A                      A
 Frequencies --    102.6593               138.0716               165.7371
 Red. masses --      5.3308                 6.6907                 9.8822
 Frc consts  --      0.0331                 0.0751                 0.1599
 IR Inten    --      0.1575                 5.9528                 2.0539

                     10                     11                     12
                      A                      A                      A
 Frequencies --    177.4664               188.7923               199.4171
 Red. masses --      5.4926                 3.1334                 6.2377
 Frc consts  --      0.1019                 0.0658                 0.1461
 IR Inten    --      0.3389                 0.5378                 1.1119

                     13                     14                     15
                      A                      A                      A
 Frequencies --    236.3700               239.7632               251.3361
 Red. masses --      2.3168                 1.5865                 6.5223
 Frc consts  --      0.0763                 0.0537                 0.2428
 IR Inten    --      0.3553                 0.4694                 7.0482

                     16                     17                     18
                      A                      A                      A
 Frequencies --    323.6104               337.9979               345.7621
 Red. masses --     12.7245                 2.7271                 5.9393
 Frc consts  --      0.7851                 0.1836                 0.4184
 IR Inten    --      0.0857                65.7466                 2.1096

                     19                     20                     21
                      A                      A                      A
 Frequencies --    361.4820               422.5924               451.8333
 Red. masses --      1.7340                 6.1775                 3.6790
 Frc consts  --      0.1335                 0.6500                 0.4425
 IR Inten    --     28.5199                 4.3392                 1.3911

                     22                     23                     24
                      A                      A                      A
 Frequencies --    458.2568               472.4451               500.5632
 Red. masses --      4.9047                 8.0829                 1.4923
 Frc consts  --      0.6068                 1.0630                 0.2203
 IR Inten    --     11.3759                 5.8993                91.1104

                     25                     26                     27
                      A                      A                      A
 Frequencies --    520.4339               562.6359               598.9666
 Red. masses --      3.1990                12.3276                10.8387
 Frc consts  --      0.5105                 2.2992                 2.2910
 IR Inten    --     57.5461                 3.8751                 2.0855

                     28                     29                     30
                      A                      A                      A
 Frequencies --    629.5872               661.3843               712.6657
 Red. masses --      3.5800                 6.7461                 6.7991
 Frc consts  --      0.8361                 1.7387                 2.0346
 IR Inten    --      9.5715                 4.1452                 8.2627

                     31                     32                     33
                      A                      A                      A
 Frequencies --    738.0855               756.8119               775.0744
 Red. masses --      4.4487                 1.2555                 4.0659
 Frc consts  --      1.4279                 0.4237                 1.4391
 IR Inten    --      0.1884                 7.0833                 6.2257

                     34                     35                     36
                      A                      A                      A
 Frequencies --    779.9377               816.9468               865.8541
 Red. masses --     10.3882                 6.2606                 1.3894
 Frc consts  --      3.7232                 2.4618                 0.6137
 IR Inten    --     10.6755                 5.9601                 0.1925

                     37                     38                     39
                      A                      A                      A
 Frequencies --    872.8302               904.8850               914.6793
 Red. masses --      1.5666                 1.1953                 2.9036
 Frc consts  --      0.7032                 0.5766                 1.4313
 IR Inten    --     67.3885                 2.9434                11.6009

                     40                     41                     42
                      A                      A                      A
 Frequencies --    944.8758              1002.7723              1045.2033
 Red. masses --      2.3381                 1.3141                 5.3394
 Frc consts  --      1.2299                 0.7785                 3.4367
 IR Inten    --     12.1882                 0.2743                30.1168

                     43                     44                     45
                      A                      A                      A
 Frequencies --   1048.1859              1078.3340              1144.0995
 Red. masses --      4.2494                 2.6924                 3.1744
 Frc consts  --      2.7508                 1.8446                 2.4482
 IR Inten    --     11.6293                15.5554               166.0310

                     46                     47                     48
                      A                      A                      A
 Frequencies --   1149.2947              1165.7007              1179.7238
 Red. masses --      2.4274                 2.7108                 1.8488
 Frc consts  --      1.8891                 2.1703                 1.5160
 IR Inten    --     86.8743                 4.1777                46.6375

                     49                     50                     51
                      A                      A                      A
 Frequencies --   1182.8394              1204.8206              1223.3881
 Red. masses --      1.7361                12.8843                 2.8593
 Frc consts  --      1.4311                11.0194                 2.5214
 IR Inten    --      4.5746               279.0806               149.4407

                     52                     53                     54
                      A                      A                      A
 Frequencies --   1234.1299              1275.6474              1291.5599
 Red. masses --      1.8795                 1.7823                 1.2998
 Frc consts  --      1.6866                 1.7088                 1.2775
 IR Inten    --    329.6024                 5.7650                98.2756

                     55                     56                     57
                      A                      A                      A
 Frequencies --   1324.9684              1335.6009              1349.0847
 Red. masses --      2.5165                 1.1913                 1.3834
 Frc consts  --      2.6029                 1.2521                 1.4834
 IR Inten    --     32.7960                37.2005                 3.9338

                     58                     59                     60
                      A                      A                      A
 Frequencies --   1352.7395              1360.3297              1424.0434
 Red. masses --      3.4957                 3.2432                 1.5996
 Frc consts  --      3.7688                 3.5360                 1.9112
 IR Inten    --    260.6609               301.7593                24.5424

                     61                     62                     63
                      A                      A                      A
 Frequencies --   1432.7814              1439.1973              1510.4572
 Red. masses --      1.2976                 2.8442                 1.0601
 Frc consts  --      1.5694                 3.4709                 1.4249
 IR Inten    --      1.5804               181.2953                 5.5770

                     64                     65                     66
                      A                      A                      A
 Frequencies --   1522.5741              1524.6230              1536.6619
 Red. masses --      1.0414                 1.0705                 1.2527
 Frc consts  --      1.4225                 1.4661                 1.7428
 IR Inten    --     15.1551                 2.1836                52.5835

                     67                     68                     69
                      A                      A                      A
 Frequencies --   1544.7484              1562.0092              1585.2503
 Red. masses --      1.4847                 2.7453                 2.6591
 Frc consts  --      2.0874                 3.9465                 3.9371
 IR Inten    --    197.3056               158.4065               715.4587

                     70                     71                     72
                      A                      A                      A
 Frequencies --   1655.9451              1686.0541              1822.3032
 Red. masses --      4.3688                 6.7275                 8.5943
 Frc consts  --      7.0584                11.2679                16.8152
 IR Inten    --    133.9374               182.2521               283.8420

                     73                     74                     75
                      A                      A                      A
 Frequencies --   3053.1514              3056.0071              3072.0927
 Red. masses --      1.0639                 1.0724                 1.0371
 Frc consts  --      5.8432                 5.9011                 5.7667
 IR Inten    --     14.3971                34.6245                28.8820

                     76                     77                     78
                      A                      A                      A
 Frequencies --   3099.5172              3134.3307              3143.2291
 Red. masses --      1.0956                 1.0976                 1.1019
 Frc consts  --      6.2015                 6.3532                 6.4142
 IR Inten    --     13.1343                 0.8571                45.8360

                     79                     80                     81
                      A                      A                      A
 Frequencies --   3150.5820              3216.6771              3244.3593
 Red. masses --      1.1020                 1.0919                 1.0910
 Frc consts  --      6.4451                 6.6563                 6.7663
 IR Inten    --     25.4687                 2.8039                 0.2193

                     82                     83                     84
                      A                      A                      A
 Frequencies --   3297.1765              3637.5388              3652.0967
 Red. masses --      1.0929                 1.0772                 1.0768
 Frc consts  --      7.0003                 8.3978                 8.4616
 IR Inten    --     10.1251                18.0864                32.2816

 - Thermochemistry -
 -------------------
 Temperature   298.150 Kelvin.  Pressure   1.00000 Atm.
 Atom     1 has atomic number  6 and mass  12.00000

 Molecular mass:   280.05903 amu.
 Principal axes and moments of inertia in atomic units:
                           1         2         3
     Eigenvalues --  1647.04615********************
           X            1.00000   0.00118   0.00057
           Y           -0.00118   1.00000   0.00077
           Z           -0.00057  -0.00077   1.00000
 This molecule is an asymmetric top.
 Rotational symmetry number  1.
 Warning -- assumption of classical behavior for rotation
           may cause significant error
 Rotational temperatures (Kelvin)      0.05259     0.00582     0.00536
 Rotational constants (GHZ):           1.09574     0.12126     0.11160
 Zero-point vibrational energy     596106.8 (Joules/Mol)
                                  142.47294 (Kcal/Mol)
 Warning -- explicit consideration of  27 degrees of freedom as
           vibrations may cause significant error
 Vibrational temperatures:     27.57    35.64    75.57    79.18    80.99
          (Kelvin)            103.37   147.70   198.65   238.46   255.33
                              271.63   286.92   340.08   344.97   361.62
                              465.60   486.30   497.47   520.09   608.02
                              650.09   659.33   679.74   720.20   748.79
                              809.51   861.78   905.83   951.58  1025.37
                             1061.94  1088.88  1115.16  1122.16  1175.40
                             1245.77  1255.81  1301.93  1316.02  1359.46
                             1442.76  1503.81  1508.10  1551.48  1646.10
                             1653.58  1677.18  1697.36  1701.84  1733.47
                             1760.18  1775.64  1835.37  1858.26  1906.33
                             1921.63  1941.03  1946.29  1957.21  2048.88
                             2061.45  2070.68  2173.21  2190.64  2193.59
                             2210.91  2222.55  2247.38  2280.82  2382.53
                             2425.85  2621.88  4392.80  4396.91  4420.05
                             4459.51  4509.60  4522.40  4532.98  4628.08
                             4667.90  4743.90  5233.60  5254.55

 Zero-point correction=                           0.227045 (Hartree/Particle)
 Thermal correction to Energy=                    0.244961
 Thermal correction to Enthalpy=                  0.245905
 Thermal correction to Gibbs Free Energy=         0.177963
 Sum of electronic and zero-point Energies=          -1370.569563
 Sum of electronic and thermal Energies=             -1370.551648
 Sum of electronic and thermal Enthalpies=           -1370.550703
 Sum of electronic and thermal Free Energies=        -1370.618646

                     E (Thermal)             CV                S
                      KCal/Mol        Cal/Mol-Kelvin    Cal/Mol-Kelvin
 Total                  153.715             64.376            142.997
 Electronic               0.000              0.000              0.000
 Translational            0.889              2.981             42.788
 Rotational               0.889              2.981             34.338
 Vibrational            151.938             58.415             65.871
 Vibration     1          0.593              1.986              6.719
 Vibration     2          0.593              1.985              6.210
 Vibration     3          0.596              1.977              4.720
 Vibration     4          0.596              1.976              4.628
 Vibration     5          0.596              1.975              4.583
 Vibration     6          0.598              1.967              4.102
 Vibration     7          0.605              1.947              3.403
 Vibration     8          0.614              1.915              2.830
 Vibration     9          0.624              1.885              2.483
 Vibration    10          0.628              1.870              2.355
 Vibration    11          0.633              1.855              2.240
 Vibration    12          0.638              1.841              2.138
 Vibration    13          0.655              1.785              1.830
 Vibration    14          0.657              1.780              1.805
 Vibration    15          0.663              1.761              1.721
 Vibration    16          0.708              1.628              1.292
 Vibration    17          0.718              1.600              1.222
 Vibration    18          0.724              1.584              1.185
 Vibration    19          0.736              1.552              1.116
 Vibration    20          0.785              1.421              0.883
 Vibration    21          0.810              1.357              0.790
 Vibration    22          0.816              1.343              0.771
 Vibration    23          0.829              1.311              0.731
 Vibration    24          0.856              1.249              0.657
 Vibration    25          0.875              1.205              0.609
 Vibration    26          0.918              1.112              0.519
 Vibration    27          0.957              1.034              0.451

 Normal termination of Gaussian 09 at Thu Nov 14 10:36:19 2019.
