 Gaussian 09, Revision E.01,

 ----------------------------------------------------------------------
 # M062X/6-311+G* SCF=Tight INT(grid=ultrafine) OPT IOP(2/17=4) Empiric
 alDispersion=GD3 SCRF=(SMD,Solvent=h2o) maxdisk=2147483648
 ----------------------------------------------------------------------

 ------------------------------------
 CP19_c2.M062X_6-311pGd_opt_water_GD3
 ------------------------------------
 Symbolic Z-matrix:
 Charge =  0 Multiplicity = 1

 SCF Done:  E(RM062X) =  -1370.81621650     A.U. after   15 cycles
 Optimization completed.
    -- Stationary point found.
 Normal termination of Gaussian 09 at Thu Nov 14 09:30:19 2019.
 Gaussian 09:  ES64L-G09RevE.01 30-Nov-2015

 ----------------------------------------------------------------------
 # M062X/6-311+G* SCF=Tight INT(grid=ultrafine) SCRF=(SMD,Solvent=h2o)E
 mpiricalDispersion=GD3 Freq=Noraman maxdisk=2147483648 geom=check gues
 s=read IOP(2/17=4)
 ----------------------------------------------------------------------

 ------------------------------------
 CP19_c2.M062X_6-311pGd_opt_water_GD3
 ------------------------------------
 Structure from the checkpoint file:  "CP19_c2.M062X_6-311pGd_opt_water_GD3.chk"
 Charge =  0 Multiplicity = 1

                         Standard orientation:
 ---------------------------------------------------------------------
 Center     Atomic      Atomic             Coordinates (Angstroms)
 Number     Number       Type             X           Y           Z
 ---------------------------------------------------------------------
      1          6           0       -0.233429    0.137203   -0.092801
      2          7           0       -1.571468    0.514332   -0.141088
      3          6           0       -2.688341   -0.290549    0.006987
      4          8           0       -2.621372   -1.506365    0.197381
      5          7           0       -3.861400    0.367612   -0.070306
      6          6           0       -5.129325   -0.337250    0.073302
      7          6           0       -6.290144    0.632871   -0.068214
      8          6           0       -7.626132   -0.084917    0.078119
      9          6           0        0.704818    1.179612   -0.031250
     10          6           0        2.054802    0.898716   -0.001297
     11          6           0        2.521672   -0.417656   -0.025770
     12          6           0        1.584026   -1.442647   -0.090039
     13          6           0        0.221364   -1.185539   -0.126954
     14          1           0       -1.738529    1.510996   -0.208626
     15          1           0       -3.877711    1.365490   -0.234113
     16          1           0       -5.164175   -0.827522    1.050411
     17          1           0       -5.197627   -1.119986   -0.687536
     18          1           0       -6.232707    1.123781   -1.044685
     19          1           0       -6.199660    1.416610    0.690358
     20          1           0       -7.741512   -0.858884   -0.685035
     21          1           0       -8.459793    0.612179   -0.024168
     22          1           0       -7.709096   -0.564630    1.056727
     23          1           0        0.366685    2.209185   -0.006056
     24         17           0        3.164600    2.243061    0.074790
     25          6           0        3.984002   -0.734690    0.010751
     26          1           0        1.920660   -2.471438   -0.117664
     27          1           0       -0.473328   -2.007136   -0.187775
     28          9           0        4.212548   -2.054280   -0.024652
     29          9           0        4.655495   -0.203289   -1.028342
     30          9           0        4.586375   -0.272908    1.123044
 ---------------------------------------------------------------------

 SCF Done:  E(RM062X) =  -1370.81621650     A.U. after    2 cycles

 The electronic state is 1-A.
 Alpha  occ. eigenvalues -- -102.69055 -25.28664 -25.28225 -25.28223 -19.60160
 Alpha  occ. eigenvalues --  -14.79271 -14.77200 -10.81220 -10.68751 -10.63090
 Alpha  occ. eigenvalues --  -10.61830 -10.58119 -10.56963 -10.56686 -10.56506
 Alpha  occ. eigenvalues --  -10.55395 -10.53066 -10.51756  -9.83340  -7.55854
 Alpha  occ. eigenvalues --   -7.55177  -7.55160  -1.47798  -1.38456  -1.38027
 Alpha  occ. eigenvalues --   -1.18994  -1.07200  -1.03811  -1.01448  -0.95194
 Alpha  occ. eigenvalues --   -0.90185  -0.87748  -0.85266  -0.81763  -0.78144
 Alpha  occ. eigenvalues --   -0.73786  -0.73124  -0.70139  -0.69986  -0.68762
 Alpha  occ. eigenvalues --   -0.68271  -0.65932  -0.63938  -0.61635  -0.58418
 Alpha  occ. eigenvalues --   -0.58368  -0.56251  -0.55761  -0.55429  -0.54243
 Alpha  occ. eigenvalues --   -0.54141  -0.53465  -0.52676  -0.52094  -0.51932
 Alpha  occ. eigenvalues --   -0.51130  -0.50079  -0.48851  -0.46814  -0.45978
 Alpha  occ. eigenvalues --   -0.45872  -0.43735  -0.42682  -0.42131  -0.40017
 Alpha  occ. eigenvalues --   -0.39406  -0.39306  -0.38735  -0.36469  -0.33242
 Alpha  occ. eigenvalues --   -0.31960  -0.28702
 Alpha virt. eigenvalues --   -0.00835  -0.00135   0.01029   0.02089   0.02586
 Alpha virt. eigenvalues --    0.03068   0.03672   0.03876   0.04583   0.04972
 Alpha virt. eigenvalues --    0.05113   0.05584   0.06475   0.06511   0.06811

 Mulliken charges:
               1
     1  C   -0.503479
     2  N   -0.375561
     3  C    0.220477
     4  O   -0.523009
     5  N   -0.394886
     6  C   -0.541843
     7  C   -0.141847
     8  C   -1.052209
     9  C   -0.469371
    10  C    0.916630
    11  C   -1.259514
    12  C   -0.349842
    13  C    0.033402
    14  H    0.443340
    15  H    0.451068
    16  H    0.278403
    17  H    0.276910
    18  H    0.267696
    19  H    0.267512
    20  H    0.269415
    21  H    0.280446
    22  H    0.269967
    23  H    0.318775
    24  Cl   0.413539
    25  C    0.555590
    26  H    0.315916
    27  H    0.316602
    28  F   -0.148663
    29  F   -0.067647
    30  F   -0.067817
 Sum of Mulliken charges =  -0.00000

 Dipole moment (field-independent basis, Debye):
    X=             -8.4056    Y=              5.5587    Z=             -1.0457  Tot=             10.1315
 Quadrupole moment (field-independent basis, Debye-Ang):
   XX=           -110.7083   YY=           -108.2883   ZZ=           -115.8027
   XY=            -18.4043   XZ=              2.1629   YZ=              0.5686

  Exact polarizability: 290.426   6.851 232.578   1.860  -0.771 144.848
 Approx polarizability: 229.774   4.455 207.714   1.988  -0.604 132.659

                      1                      2                      3
                      A                      A                      A
 Frequencies --     12.1009                24.7972                41.3110
 Red. masses --      3.4242                 3.0743                 3.8952
 Frc consts  --      0.0003                 0.0011                 0.0039
 IR Inten    --      1.2636                 2.6123                27.7126

                      4                      5                      6
                      A                      A                      A
 Frequencies --     55.2605                61.4163                63.8860
 Red. masses --     10.3889                 5.3371                 3.9081
 Frc consts  --      0.0187                 0.0119                 0.0094
 IR Inten    --      2.1803                 4.6523                15.2628

                      7                      8                      9
                      A                      A                      A
 Frequencies --     96.6316               143.3923               144.1981
 Red. masses --      6.2535                 2.7321                 7.1453
 Frc consts  --      0.0344                 0.0331                 0.0875
 IR Inten    --      0.3046                17.4921                 4.5570

                     10                     11                     12
                      A                      A                      A
 Frequencies --    172.0895               177.0410               200.9475
 Red. masses --     10.6349                 6.6421                 6.7053
 Frc consts  --      0.1856                 0.1227                 0.1595
 IR Inten    --      2.4498                 0.9827                 0.9145

                     13                     14                     15
                      A                      A                      A
 Frequencies --    234.3575               238.7250               256.6941
 Red. masses --      3.9968                 1.3293                 6.2249
 Frc consts  --      0.1293                 0.0446                 0.2417
 IR Inten    --      1.4708                 0.1024                 6.8715

                     16                     17                     18
                      A                      A                      A
 Frequencies --    323.2271               343.9619               347.7488
 Red. masses --     14.5235                 2.9262                 5.0016
 Frc consts  --      0.8940                 0.2040                 0.3564
 IR Inten    --      3.0436                24.8189                26.5772

                     19                     20                     21
                      A                      A                      A
 Frequencies --    350.4908               421.2963               454.7726
 Red. masses --      1.3679                 6.4214                 5.3685
 Frc consts  --      0.0990                 0.6715                 0.6542
 IR Inten    --     66.7494                 4.0913                18.0189

                     22                     23                     24
                      A                      A                      A
 Frequencies --    457.0634               471.4284               512.0987
 Red. masses --      4.4432                 8.1314                 5.4468
 Frc consts  --      0.5469                 1.0647                 0.8416
 IR Inten    --     11.5418                10.1501                31.4902

                     25                     26                     27
                      A                      A                      A
 Frequencies --    553.9654               564.6823               597.0701
 Red. masses --      1.3370                 4.9710                11.0119
 Frc consts  --      0.2417                 0.9339                 2.3129
 IR Inten    --    197.9337                63.1149                 4.2402

                     28                     29                     30
                      A                      A                      A
 Frequencies --    627.0121               657.5109               707.3925
 Red. masses --      3.4790                 7.1706                 7.4504
 Frc consts  --      0.8058                 1.8265                 2.1966
 IR Inten    --     11.9951                11.1637                14.3949

                     31                     32                     33
                      A                      A                      A
 Frequencies --    738.6618               757.9923               776.4614
 Red. masses --      4.4172                 1.1329                10.9219
 Frc consts  --      1.4200                 0.3835                 3.8796
 IR Inten    --      0.1969                15.2587                 8.9327

                     34                     35                     36
                      A                      A                      A
 Frequencies --    781.4604               813.5495               852.7247
 Red. masses --      6.1094                 7.0225                 1.4585
 Frc consts  --      2.1982                 2.7385                 0.6249
 IR Inten    --     15.5223                 6.9204                76.6522

                     37                     38                     39
                      A                      A                      A
 Frequencies --    891.1791               907.6503               912.5745
 Red. masses --      1.5219                 1.1648                 3.1593
 Frc consts  --      0.7121                 0.5654                 1.5502
 IR Inten    --     57.2957                 2.9404                30.4362

                     40                     41                     42
                      A                      A                      A
 Frequencies --    940.8774               994.8864              1037.3541
 Red. masses --      2.1594                 1.3334                 5.7990
 Frc consts  --      1.1263                 0.7776                 3.6767
 IR Inten    --     12.7050                 4.2266                45.0937

                     43                     44                     45
                      A                      A                      A
 Frequencies --   1052.5978              1082.9450              1131.7658
 Red. masses --      4.0990                 2.6179                 2.9277
 Frc consts  --      2.6758                 1.8089                 2.2094
 IR Inten    --     26.4583                27.6530               463.3934

                     46                     47                     48
                      A                      A                      A
 Frequencies --   1137.2370              1152.4185              1164.8095
 Red. masses --     12.3522                 2.9521                 3.1168
 Frc consts  --      9.4123                 2.3099                 2.4915
 IR Inten    --    471.3844                18.1737               151.1400

                     49                     50                     51
                      A                      A                      A
 Frequencies --   1173.5879              1181.1741              1194.3889
 Red. masses --      3.5999                 1.6213                 1.7018
 Frc consts  --      2.9213                 1.3327                 1.4303
 IR Inten    --      5.1092                 0.1257               127.9405

                     52                     53                     54
                      A                      A                      A
 Frequencies --   1261.0868              1286.4702              1297.3501
 Red. masses --      1.9084                 1.1872                 1.8378
 Frc consts  --      1.7882                 1.1576                 1.8225
 IR Inten    --    667.9448                 0.6238               105.9279

                     55                     56                     57
                      A                      A                      A
 Frequencies --   1329.8892              1335.6222              1346.3675
 Red. masses --      2.4373                 1.0704                 1.6750
 Frc consts  --      2.5398                 1.1250                 1.7889
 IR Inten    --     58.0243                 0.8992               315.2083

                     58                     59                     60
                      A                      A                      A
 Frequencies --   1351.4924              1359.7779              1417.2542
 Red. masses --      3.4133                 3.1225                 1.2661
 Frc consts  --      3.6732                 3.4016                 1.4983
 IR Inten    --    523.1249               226.2288                 3.4366

                     61                     62                     63
                      A                      A                      A
 Frequencies --   1426.0293              1438.5281              1484.6433
 Red. masses --      1.6697                 3.2307                 1.0569
 Frc consts  --      2.0005                 3.9390                 1.3725
 IR Inten    --      2.3975               233.3949                 7.6812

                     64                     65                     66
                      A                      A                      A
 Frequencies --   1500.2532              1507.7290              1527.8502
 Red. masses --      1.0382                 1.0809                 1.0884
 Frc consts  --      1.3768                 1.4477                 1.4970
 IR Inten    --     13.9188                 7.4610                40.9546

                     67                     68                     69
                      A                      A                      A
 Frequencies --   1554.6881              1577.6029              1578.1196
 Red. masses --      2.8497                 2.1373                 2.7564
 Frc consts  --      4.0582                 3.1340                 4.0446
 IR Inten    --    282.9689              1039.5248               447.7509

                     70                     71                     72
                      A                      A                      A
 Frequencies --   1653.5730              1679.2093              1709.2726
 Red. masses --      5.4138                 4.8532                 3.3949
 Frc consts  --      8.7217                 8.0628                 5.8438
 IR Inten    --    439.9566                50.5440               781.6989

                     73                     74                     75
                      A                      A                      A
 Frequencies --   3068.4204              3068.4941              3077.2665
 Red. masses --      1.0532                 1.0439                 1.0580
 Frc consts  --      5.8425                 5.7913                 5.9032
 IR Inten    --      9.8931                26.4392                94.9486

                     76                     77                     78
                      A                      A                      A
 Frequencies --   3099.0685              3119.2670              3137.7403
 Red. masses --      1.1039                 1.1072                 1.1043
 Frc consts  --      6.2467                 6.3470                 6.4060
 IR Inten    --      0.0054                34.9568               100.3540

                     79                     80                     81
                      A                      A                      A
 Frequencies --   3145.8500              3233.2599              3248.6236
 Red. masses --      1.1024                 1.0932                 1.0919
 Frc consts  --      6.4280                 6.7331                 6.7892
 IR Inten    --     46.1256                 1.3007                 0.0217

                     82                     83                     84
                      A                      A                      A
 Frequencies --   3303.0196              3628.9804              3629.7730
 Red. masses --      1.0929                 1.0790                 1.0779
 Frc consts  --      7.0254                 8.3726                 8.3674
 IR Inten    --      8.2084               244.7538                29.0141

 - Thermochemistry -
 -------------------
 Temperature   298.150 Kelvin.  Pressure   1.00000 Atm.
 Atom     1 has atomic number  6 and mass  12.00000

 Molecular mass:   280.05903 amu.
 Principal axes and moments of inertia in atomic units:
                           1         2         3
     Eigenvalues --  1647.15265********************
           X            1.00000  -0.00186  -0.00036
           Y            0.00186   1.00000  -0.00115
           Z            0.00037   0.00115   1.00000
 This molecule is an asymmetric top.
 Rotational symmetry number  1.
 Warning -- assumption of classical behavior for rotation
           may cause significant error
 Rotational temperatures (Kelvin)      0.05258     0.00583     0.00536
 Rotational constants (GHZ):           1.09567     0.12138     0.11173
 Zero-point vibrational energy     594373.2 (Joules/Mol)
                                  142.05860 (Kcal/Mol)
 Warning -- explicit consideration of  27 degrees of freedom as
           vibrations may cause significant error
 Vibrational temperatures:     17.41    35.68    59.44    79.51    88.36
          (Kelvin)             91.92   139.03   206.31   207.47   247.60
                              254.72   289.12   337.19   343.47   369.33
                              465.05   494.88   500.33   504.28   606.15
                              654.32   657.61   678.28   736.79   797.03
                              812.45   859.05   902.13   946.01  1017.78
                             1062.77  1090.58  1117.15  1124.35  1170.51
                             1226.88  1282.21  1305.90  1312.99  1353.71
                             1431.42  1492.52  1514.45  1558.11  1628.36
                             1636.23  1658.07  1675.90  1688.53  1699.44
                             1718.46  1814.42  1850.94  1866.60  1913.41
                             1921.66  1937.12  1944.49  1956.41  2039.11
                             2051.74  2069.72  2136.07  2158.53  2169.28
                             2198.23  2236.85  2269.82  2270.56  2379.12
                             2416.00  2459.26  4414.77  4414.87  4427.49
                             4458.86  4487.92  4514.50  4526.17  4651.93
                             4674.04  4752.30  5221.29  5222.43

 Zero-point correction=                           0.226385 (Hartree/Particle)
 Thermal correction to Energy=                    0.244393
 Thermal correction to Enthalpy=                  0.245338
 Thermal correction to Gibbs Free Energy=         0.176519
 Sum of electronic and zero-point Energies=          -1370.589832
 Sum of electronic and thermal Energies=             -1370.571823
 Sum of electronic and thermal Enthalpies=           -1370.570879
 Sum of electronic and thermal Free Energies=        -1370.639698

                     E (Thermal)             CV                S
                      KCal/Mol        Cal/Mol-Kelvin    Cal/Mol-Kelvin
 Total                  153.359             64.445            144.841
 Electronic               0.000              0.000              0.000
 Translational            0.889              2.981             42.788
 Rotational               0.889              2.981             34.336
 Vibrational            151.582             58.483             67.718
 Vibration     1          0.593              1.987              7.632
 Vibration     2          0.593              1.985              6.207
 Vibration     3          0.594              1.981              5.195
 Vibration     4          0.596              1.975              4.620
 Vibration     5          0.597              1.973              4.411
 Vibration     6          0.597              1.972              4.333
 Vibration     7          0.603              1.952              3.521
 Vibration     8          0.616              1.910              2.758
 Vibration     9          0.616              1.909              2.747
 Vibration    10          0.626              1.877              2.413
 Vibration    11          0.628              1.871              2.359
 Vibration    12          0.638              1.839              2.124
 Vibration    13          0.654              1.788              1.845
 Vibration    14          0.657              1.781              1.812
 Vibration    15          0.666              1.751              1.684
 Vibration    16          0.708              1.629              1.294
 Vibration    17          0.723              1.588              1.194
 Vibration    18          0.725              1.580              1.176
 Vibration    19          0.727              1.574              1.164
 Vibration    20          0.784              1.424              0.888
 Vibration    21          0.813              1.350              0.781
 Vibration    22          0.815              1.345              0.775
 Vibration    23          0.828              1.313              0.734
 Vibration    24          0.867              1.223              0.629
 Vibration    25          0.909              1.131              0.536
 Vibration    26          0.921              1.108              0.515
 Vibration    27          0.955              1.038              0.455

 Normal termination of Gaussian 09 at Thu Nov 14 10:37:50 2019.
