 Gaussian 09, Revision E.01,

 ----------------------------------------------------------------------
 # M062X/6-311+G* SCF=Tight INT(grid=ultrafine) OPT IOP(2/17=4) Empiric
 alDispersion=GD3 SCRF=(SMD,Solvent=h2o) maxdisk=2147483648
 ----------------------------------------------------------------------

 ---------------------------------
 CP19.M062X_6-311pGd_opt_water_GD3
 ---------------------------------
 Symbolic Z-matrix:
 Charge =  0 Multiplicity = 1

 SCF Done:  E(RM062X) =  -1370.81640948     A.U. after   15 cycles
 Optimization completed.
    -- Stationary point found.
 Normal termination of Gaussian 09 at Thu Nov 14 09:30:20 2019.
 Gaussian 09:  ES64L-G09RevE.01 30-Nov-2015

 ----------------------------------------------------------------------
 # M062X/6-311+G* SCF=Tight INT(grid=ultrafine) SCRF=(SMD,Solvent=h2o)E
 mpiricalDispersion=GD3 Freq=Noraman maxdisk=2147483648 geom=check gues
 s=read IOP(2/17=4)
 ----------------------------------------------------------------------

 ---------------------------------
 CP19.M062X_6-311pGd_opt_water_GD3
 ---------------------------------
 Structure from the checkpoint file:  "CP19.M062X_6-311pGd_opt_water_GD3.chk"
 Charge =  0 Multiplicity = 1

                         Standard orientation:
 ---------------------------------------------------------------------
 Center     Atomic      Atomic             Coordinates (Angstroms)
 Number     Number       Type             X           Y           Z
 ---------------------------------------------------------------------
      1          6           0       -0.196351   -0.732750   -0.062597
      2          7           0       -1.570102   -0.946308   -0.108786
      3          6           0       -2.582228   -0.011596    0.026277
      4          8           0       -2.368275    1.187941    0.213166
      5          7           0       -3.826496   -0.521319   -0.053553
      6          6           0       -4.997706    0.341872    0.041703
      7          6           0       -6.270282   -0.484348   -0.037662
      8          6           0       -7.505772    0.403236    0.048125
      9          6           0        0.397265    0.535662   -0.084729
     10          6           0        1.778347    0.636971   -0.049567
     11          6           0        2.603770   -0.484498    0.002335
     12          6           0        2.000354   -1.741381    0.014115
     13          6           0        0.625525   -1.868010   -0.016732
     14          1           0       -1.851988   -1.917288   -0.171267
     15          1           0       -3.964588   -1.501211   -0.261001
     16          1           0       -4.976033    1.079842   -0.765925
     17          1           0       -4.963113    0.890688    0.986509
     18          1           0       -6.276077   -1.216516    0.775613
     19          1           0       -6.277457   -1.047387   -0.976338
     20          1           0       -7.523116    0.961886    0.987472
     21          1           0       -8.420437   -0.190008   -0.004866
     22          1           0       -7.527432    1.125841   -0.771652
     23          1           0       -0.201804    1.430491   -0.133326
     24         17           0        2.460968    2.243816   -0.080694
     25          6           0        4.095858   -0.367180    0.043009
     26          1           0        2.614489   -2.632258    0.050937
     27          1           0        0.174511   -2.853845   -0.004877
     28          9           0        4.690385   -1.566966    0.098398
     29          9           0        4.597516    0.257047   -1.039221
     30          9           0        4.532798    0.324018    1.112591
 ---------------------------------------------------------------------

 SCF Done:  E(RM062X) =  -1370.81640948     A.U. after    2 cycles

 The electronic state is 1-A.
 Alpha  occ. eigenvalues -- -102.68940 -25.28667 -25.28231 -25.28227 -19.60199
 Alpha  occ. eigenvalues --  -14.79313 -14.77219 -10.81233 -10.68780 -10.63045
 Alpha  occ. eigenvalues --  -10.61839 -10.58138 -10.57022 -10.56686 -10.56149
 Alpha  occ. eigenvalues --  -10.55753 -10.53065 -10.51755  -9.83228  -7.55740
 Alpha  occ. eigenvalues --   -7.55066  -7.55048  -1.47802  -1.38454  -1.38038
 Alpha  occ. eigenvalues --   -1.19043  -1.07193  -1.03837  -1.01419  -0.95171
 Alpha  occ. eigenvalues --   -0.90157  -0.87763  -0.85238  -0.81880  -0.78102
 Alpha  occ. eigenvalues --   -0.74065  -0.72625  -0.70145  -0.70033  -0.68782
 Alpha  occ. eigenvalues --   -0.67879  -0.66817  -0.63770  -0.61534  -0.58424
 Alpha  occ. eigenvalues --   -0.58388  -0.56336  -0.56060  -0.55067  -0.54327
 Alpha  occ. eigenvalues --   -0.54147  -0.53294  -0.52701  -0.52099  -0.51892
 Alpha  occ. eigenvalues --   -0.51122  -0.50194  -0.48807  -0.46818  -0.46028
 Alpha  occ. eigenvalues --   -0.45928  -0.43616  -0.42806  -0.42132  -0.40019
 Alpha  occ. eigenvalues --   -0.39394  -0.39215  -0.38614  -0.36551  -0.33398
 Alpha  occ. eigenvalues --   -0.31902  -0.28697
 Alpha virt. eigenvalues --   -0.00926  -0.00048   0.00999   0.02124   0.02620
 Alpha virt. eigenvalues --    0.03176   0.03550   0.03870   0.04624   0.05066
 Alpha virt. eigenvalues --    0.05141   0.05624   0.06047   0.06609   0.07120

 Mulliken charges:
               1
     1  C   -0.666418
     2  N   -0.378104
     3  C    0.241935
     4  O   -0.522829
     5  N   -0.385994
     6  C   -0.530481
     7  C   -0.143681
     8  C   -1.051157
     9  C   -0.287545
    10  C    0.714436
    11  C   -1.061291
    12  C   -0.299838
    13  C   -0.170119
    14  H    0.446547
    15  H    0.447923
    16  H    0.279081
    17  H    0.275759
    18  H    0.268775
    19  H    0.266323
    20  H    0.269957
    21  H    0.280446
    22  H    0.269661
    23  H    0.338581
    24  Cl   0.422393
    25  C    0.643692
    26  H    0.320006
    27  H    0.299338
    28  F   -0.143844
    29  F   -0.071433
    30  F   -0.072118
 Sum of Mulliken charges =  -0.00000

 Dipole moment (field-independent basis, Debye):
    X=             -8.6975    Y=             -8.5465    Z=             -1.0425  Tot=             12.2383
 Quadrupole moment (field-independent basis, Debye-Ang):
   XX=           -105.2054   YY=           -103.3403   ZZ=           -115.7877
   XY=             11.4009   XZ=              2.7552   YZ=             -0.0246

  Exact polarizability: 284.787   6.508 238.139   1.498   1.218 144.698
 Approx polarizability: 226.011   7.738 211.995   1.572   1.049 132.631

                      1                      2                      3
                      A                      A                      A
 Frequencies --     15.9939                26.6760                45.3994
 Red. masses --      4.8927                 2.6399                 4.8526
 Frc consts  --      0.0007                 0.0011                 0.0059
 IR Inten    --      0.0825                 3.6262                 9.7811

                      4                      5                      6
                      A                      A                      A
 Frequencies --     56.6162                59.4959                63.1730
 Red. masses --     10.7053                 4.9986                 3.2967
 Frc consts  --      0.0202                 0.0104                 0.0078
 IR Inten    --      3.7190                 8.6560                21.5637

                      7                      8                      9
                      A                      A                      A
 Frequencies --     98.8857               139.6334               148.9521
 Red. masses --      6.4607                 5.1347                 3.0180
 Frc consts  --      0.0372                 0.0590                 0.0395
 IR Inten    --      0.5902                 8.9880                12.3992

                     10                     11                     12
                      A                      A                      A
 Frequencies --    163.7530               182.0723               209.3650
 Red. masses --     15.0465                 6.5500                 6.8211
 Frc consts  --      0.2377                 0.1279                 0.1762
 IR Inten    --      1.5892                 1.7610                 2.2299

                     13                     14                     15
                      A                      A                      A
 Frequencies --    234.7554               244.6217               258.4238
 Red. masses --      6.9662                 1.1379                 5.8902
 Frc consts  --      0.2262                 0.0401                 0.2318
 IR Inten    --      1.3028                 0.2798                 4.6677

                     16                     17                     18
                      A                      A                      A
 Frequencies --    319.4479               343.7618               354.7356
 Red. masses --     12.5910                 4.2815                 1.1424
 Frc consts  --      0.7570                 0.2981                 0.0847
 IR Inten    --      3.0077                18.4439                84.4961

                     19                     20                     21
                      A                      A                      A
 Frequencies --    384.4602               416.6067               423.7092
 Red. masses --      6.9097                 5.6020                 5.8091
 Frc consts  --      0.6017                 0.5729                 0.6145
 IR Inten    --     27.5046                 5.4985                 4.5463

                     22                     23                     24
                      A                      A                      A
 Frequencies --    453.0176               472.1714               508.9139
 Red. masses --      4.3002                 9.0804                 5.0655
 Frc consts  --      0.5200                 1.1928                 0.7730
 IR Inten    --      5.9821                15.9222                24.8847

                     25                     26                     27
                      A                      A                      A
 Frequencies --    540.9749               564.5023               598.3121
 Red. masses --      1.1632                12.5937                10.7395
 Frc consts  --      0.2006                 2.3645                 2.2651
 IR Inten    --    240.7584                 8.2380                 2.1231

                     28                     29                     30
                      A                      A                      A
 Frequencies --    630.1582               651.7357               719.8806
 Red. masses --      3.5303                 7.1929                 7.7051
 Frc consts  --      0.8260                 1.8001                 2.3526
 IR Inten    --     19.2468                18.3971                21.4886

                     31                     32                     33
                      A                      A                      A
 Frequencies --    738.9704               757.6371               771.5053
 Red. masses --      4.6880                 1.1403                 8.9714
 Frc consts  --      1.5083                 0.3856                 3.1462
 IR Inten    --      0.7275                16.0473                14.8836

                     34                     35                     36
                      A                      A                      A
 Frequencies --    780.2194               799.1046               856.7042
 Red. masses --      5.9073                 7.7832                 1.4564
 Frc consts  --      2.1187                 2.9283                 0.6298
 IR Inten    --     16.3122                 9.8054                85.5306

                     37                     38                     39
                      A                      A                      A
 Frequencies --    895.2083               907.6901               926.1831
 Red. masses --      1.4767                 1.1573                 2.0902
 Frc consts  --      0.6973                 0.5618                 1.0564
 IR Inten    --     56.3602                 3.1199                 1.8137

                     40                     41                     42
                      A                      A                      A
 Frequencies --    948.5204               995.6878              1037.2703
 Red. masses --      3.5580                 1.3275                 5.4789
 Frc consts  --      1.8860                 0.7754                 3.4732
 IR Inten    --     35.3934                 2.8063                43.8246

                     43                     44                     45
                      A                      A                      A
 Frequencies --   1049.1053              1080.8217              1132.1666
 Red. masses --      4.2009                 2.6190                 2.9061
 Frc consts  --      2.7242                 1.8026                 2.1947
 IR Inten    --     17.2006                13.5003               397.9452

                     46                     47                     48
                      A                      A                      A
 Frequencies --   1137.8883              1143.4101              1164.1837
 Red. masses --     12.4295                 2.5981                 4.6627
 Frc consts  --      9.4821                 2.0013                 3.7233
 IR Inten    --    470.3120                35.9904               219.3436

                     49                     50                     51
                      A                      A                      A
 Frequencies --   1171.8523              1181.4251              1205.1966
 Red. masses --      3.5390                 1.6402                 1.4388
 Frc consts  --      2.8633                 1.3489                 1.2313
 IR Inten    --     14.8935                 1.0225               156.0248

                     52                     53                     54
                      A                      A                      A
 Frequencies --   1265.8320              1283.5028              1286.6029
 Red. masses --      1.7678                 1.8517                 1.1913
 Frc consts  --      1.6689                 1.7973                 1.1619
 IR Inten    --    549.8980                22.6786                 6.7812

                     55                     56                     57
                      A                      A                      A
 Frequencies --   1303.4630              1335.2484              1348.5991
 Red. masses --      2.4723                 1.0701                 1.4870
 Frc consts  --      2.4748                 1.1241                 1.5935
 IR Inten    --     21.7206                 1.7021               124.0597

                     58                     59                     60
                      A                      A                      A
 Frequencies --   1349.4735              1361.0773              1417.0653
 Red. masses --      3.1285                 5.1847                 1.2684
 Frc consts  --      3.3568                 5.6590                 1.5007
 IR Inten    --    559.6691               629.8261                 6.0095

                     61                     62                     63
                      A                      A                      A
 Frequencies --   1425.3661              1444.5619              1485.4366
 Red. masses --      1.6644                 3.6252                 1.0588
 Frc consts  --      1.9923                 4.4571                 1.3764
 IR Inten    --     17.8274               181.6976                 9.0979

                     64                     65                     66
                      A                      A                      A
 Frequencies --   1501.1540              1508.7444              1527.8679
 Red. masses --      1.0382                 1.0791                 1.0894
 Frc consts  --      1.3784                 1.4472                 1.4984
 IR Inten    --     13.9071                 7.9991                43.8675

                     67                     68                     69
                      A                      A                      A
 Frequencies --   1551.6627              1565.7438              1580.2091
 Red. masses --      2.3431                 2.8109                 2.4279
 Frc consts  --      3.3238                 4.0602                 3.5720
 IR Inten    --    575.8391                23.8368              1021.3179

                     70                     71                     72
                      A                      A                      A
 Frequencies --   1649.5154              1681.7684              1706.2342
 Red. masses --      6.2373                 4.5050                 3.6982
 Frc consts  --      9.9991                 7.5071                 6.3433
 IR Inten    --    453.6245                41.0096               853.2757

                     73                     74                     75
                      A                      A                      A
 Frequencies --   3068.3797              3069.0620              3076.7223
 Red. masses --      1.0603                 1.0372                 1.0592
 Frc consts  --      5.8815                 5.7560                 5.9077
 IR Inten    --      9.1866                25.3993                94.1621

                     76                     77                     78
                      A                      A                      A
 Frequencies --   3100.1533              3120.3784              3138.6271
 Red. masses --      1.1029                 1.1068                 1.1044
 Frc consts  --      6.2454                 6.3494                 6.4098
 IR Inten    --      1.5276                34.4165                99.3059

                     79                     80                     81
                      A                      A                      A
 Frequencies --   3146.1171              3226.2960              3249.8843
 Red. masses --      1.1025                 1.0916                 1.0944
 Frc consts  --      6.4296                 6.6946                 6.8102
 IR Inten    --     46.2850                 2.0096                 0.3124

                     82                     83                     84
                      A                      A                      A
 Frequencies --   3299.1565              3601.9532              3640.4040
 Red. masses --      1.0922                 1.0786                 1.0795
 Frc consts  --      7.0044                 8.2451                 8.4291
 IR Inten    --     22.2646                96.9024               182.3352

 - Thermochemistry -
 -------------------
 Temperature   298.150 Kelvin.  Pressure   1.00000 Atm.
 Atom     1 has atomic number  6 and mass  12.00000

 Molecular mass:   280.05903 amu.
 Principal axes and moments of inertia in atomic units:
                           1         2         3
     Eigenvalues --  1602.83693********************
           X            1.00000  -0.00191  -0.00009
           Y            0.00191   1.00000   0.00248
           Z            0.00009  -0.00248   1.00000
 This molecule is an asymmetric top.
 Rotational symmetry number  1.
 Warning -- assumption of classical behavior for rotation
           may cause significant error
 Rotational temperatures (Kelvin)      0.05404     0.00602     0.00554
 Rotational constants (GHZ):           1.12597     0.12538     0.11542
 Zero-point vibrational energy     594108.7 (Joules/Mol)
                                  141.99539 (Kcal/Mol)
 Warning -- explicit consideration of  27 degrees of freedom as
           vibrations may cause significant error
 Vibrational temperatures:     23.01    38.38    65.32    81.46    85.60
          (Kelvin)             90.89   142.27   200.90   214.31   235.60
                              261.96   301.23   337.76   351.96   371.81
                              459.61   494.60   510.38   553.15   599.40
                              609.62   651.79   679.35   732.21   778.34
                              812.19   860.84   906.66   937.70  1035.75
                             1063.21  1090.07  1110.02  1122.56  1149.73
                             1232.60  1288.00  1305.96  1332.57  1364.71
                             1432.57  1492.40  1509.43  1555.06  1628.93
                             1637.17  1645.11  1675.00  1686.03  1699.81
                             1734.01  1821.25  1846.67  1851.13  1875.39
                             1921.12  1940.33  1941.59  1958.28  2038.84
                             2050.78  2078.40  2137.21  2159.82  2170.74
                             2198.26  2232.49  2252.75  2273.57  2373.28
                             2419.69  2454.89  4414.71  4415.69  4426.71
                             4460.42  4489.52  4515.78  4526.56  4641.91
                             4675.85  4746.74  5182.40  5237.72

 Zero-point correction=                           0.226284 (Hartree/Particle)
 Thermal correction to Energy=                    0.244253
 Thermal correction to Enthalpy=                  0.245198
 Thermal correction to Gibbs Free Energy=         0.176896
 Sum of electronic and zero-point Energies=          -1370.590125
 Sum of electronic and thermal Energies=             -1370.572156
 Sum of electronic and thermal Enthalpies=           -1370.571212
 Sum of electronic and thermal Free Energies=        -1370.639513

                     E (Thermal)             CV                S
                      KCal/Mol        Cal/Mol-Kelvin    Cal/Mol-Kelvin
 Total                  153.271             64.460            143.752
 Electronic               0.000              0.000              0.000
 Translational            0.889              2.981             42.788
 Rotational               0.889              2.981             34.244
 Vibrational            151.494             58.498             66.720
 Vibration     1          0.593              1.986              7.078
 Vibration     2          0.593              1.984              6.062
 Vibration     3          0.595              1.979              5.008
 Vibration     4          0.596              1.975              4.572
 Vibration     5          0.597              1.974              4.474
 Vibration     6          0.597              1.972              4.356
 Vibration     7          0.604              1.950              3.476
 Vibration     8          0.615              1.914              2.809
 Vibration     9          0.618              1.904              2.686
 Vibration    10          0.623              1.887              2.506
 Vibration    11          0.630              1.864              2.307
 Vibration    12          0.642              1.826              2.049
 Vibration    13          0.655              1.788              1.842
 Vibration    14          0.660              1.772              1.769
 Vibration    15          0.667              1.749              1.672
 Vibration    16          0.705              1.636              1.313
 Vibration    17          0.723              1.588              1.195
 Vibration    18          0.731              1.566              1.145
 Vibration    19          0.753              1.503              1.022
 Vibration    20          0.780              1.434              0.904
 Vibration    21          0.786              1.419              0.879
 Vibration    22          0.812              1.354              0.787
 Vibration    23          0.829              1.312              0.731
 Vibration    24          0.864              1.230              0.636
 Vibration    25          0.896              1.159              0.563
 Vibration    26          0.920              1.108              0.515
 Vibration    27          0.956              1.035              0.453

 Normal termination of Gaussian 09 at Thu Nov 14 10:35:45 2019.
