 Gaussian 09, Revision E.01,

 ----------------------------------------------------------------------
 # M062X/6-311+G* SCF=Tight INT(grid=ultrafine) OPT IOP(2/17=4) Empiric
 alDispersion=GD3 maxdisk=2147483648
 ----------------------------------------------------------------------

 ---------------------------
 CP19.M062X_6-311pGd_opt_GD3
 ---------------------------
 Symbolic Z-matrix:
 Charge =  0 Multiplicity = 1

 SCF Done:  E(RM062X) =  -1370.79640323     A.U. after   16 cycles
 Optimization completed.
    -- Stationary point found.
 Normal termination of Gaussian 09 at Thu Nov 14 09:31:05 2019.
 Gaussian 09:  ES64L-G09RevE.01 30-Nov-2015

 ----------------------------------------------------------------------
 # M062X/6-311+G* SCF=Tight INT(grid=ultrafine) EmpiricalDispersion=GD3
  Freq=Noraman maxdisk=2147483648 geom=check guess=read IOP(2/17=4)
 ----------------------------------------------------------------------

 ---------------------------
 CP19.M062X_6-311pGd_opt_GD3
 ---------------------------
 Structure from the checkpoint file:  "CP19.M062X_6-311pGd_opt_GD3.chk"
 Charge =  0 Multiplicity = 1

                         Standard orientation:
 ---------------------------------------------------------------------
 Center     Atomic      Atomic             Coordinates (Angstroms)
 Number     Number       Type             X           Y           Z
 ---------------------------------------------------------------------
      1          6           0       -0.185521   -0.754717   -0.021846
      2          7           0       -1.563890   -0.975466   -0.054157
      3          6           0       -2.577026   -0.024032    0.037749
      4          8           0       -2.378781    1.158839    0.203439
      5          7           0       -3.834366   -0.567486   -0.047666
      6          6           0       -4.986164    0.325417   -0.082303
      7          6           0       -6.278045   -0.468081    0.045525
      8          6           0       -7.499780    0.444964    0.019528
      9          6           0        0.389864    0.519649   -0.037883
     10          6           0        1.771592    0.639727   -0.026485
     11          6           0        2.609305   -0.475190    0.002566
     12          6           0        2.021391   -1.736751    0.019844
     13          6           0        0.646750   -1.880085    0.008172
     14          1           0       -1.844033   -1.943174    0.000076
     15          1           0       -3.940591   -1.453311   -0.520756
     16          1           0       -4.987322    0.918963   -1.004200
     17          1           0       -4.883482    1.027647    0.746417
     18          1           0       -6.252700   -1.042261    0.976389
     19          1           0       -6.346333   -1.194246   -0.773337
     20          1           0       -7.468788    1.164146    0.841307
     21          1           0       -8.423633   -0.127590    0.113117
     22          1           0       -7.551000    1.009870   -0.914280
     23          1           0       -0.228016    1.403637   -0.051191
     24         17           0        2.433221    2.246466   -0.048785
     25          6           0        4.106596   -0.345088    0.015975
     26          1           0        2.652003   -2.616193    0.043173
     27          1           0        0.212579   -2.874446    0.020648
     28          9           0        4.698774   -1.550216    0.044506
     29          9           0        4.572989    0.287903   -1.069246
     30          9           0        4.550551    0.328103    1.086092
 ---------------------------------------------------------------------

 SCF Done:  E(RM062X) =  -1370.79640323     A.U. after    2 cycles

 The electronic state is 1-A.
 Alpha  occ. eigenvalues -- -102.68124 -25.27644 -25.27026 -25.27019 -19.60746
 Alpha  occ. eigenvalues --  -14.80872 -14.78711 -10.80309 -10.69472 -10.62963
 Alpha  occ. eigenvalues --  -10.62509 -10.58472 -10.58220 -10.57774 -10.57000
 Alpha  occ. eigenvalues --  -10.56354 -10.55521 -10.54065  -9.82410  -7.54932
 Alpha  occ. eigenvalues --   -7.54241  -7.54218  -1.46768  -1.37395  -1.37004
 Alpha  occ. eigenvalues --   -1.20218  -1.08469  -1.05078  -1.01458  -0.95275
 Alpha  occ. eigenvalues --   -0.90832  -0.89068  -0.85552  -0.81971  -0.79008
 Alpha  occ. eigenvalues --   -0.74602  -0.72894  -0.70548  -0.69908  -0.69029
 Alpha  occ. eigenvalues --   -0.68553  -0.67108  -0.65084  -0.62459  -0.57920
 Alpha  occ. eigenvalues --   -0.57364  -0.57262  -0.56251  -0.55493  -0.54844
 Alpha  occ. eigenvalues --   -0.54216  -0.53036  -0.52893  -0.52558  -0.51222
 Alpha  occ. eigenvalues --   -0.50875  -0.50713  -0.49784  -0.48505  -0.47189
 Alpha  occ. eigenvalues --   -0.45784  -0.44396  -0.44246  -0.43173  -0.42213
 Alpha  occ. eigenvalues --   -0.41536  -0.38968  -0.38345  -0.36840  -0.34292
 Alpha  occ. eigenvalues --   -0.31958  -0.29639
 Alpha virt. eigenvalues --   -0.01580  -0.01100  -0.00436   0.00838   0.01682
 Alpha virt. eigenvalues --    0.02275   0.02645   0.03115   0.03717   0.04565
 Alpha virt. eigenvalues --    0.05054   0.05218   0.06011   0.06141   0.06442

 Mulliken charges:
               1
     1  C   -0.689712
     2  N   -0.357990
     3  C    0.151448
     4  O   -0.333039
     5  N   -0.278056
     6  C   -0.522631
     7  C   -0.115178
     8  C   -1.019488
     9  C   -0.276561
    10  C    0.720362
    11  C   -1.117998
    12  C   -0.265178
    13  C   -0.116548
    14  H    0.340939
    15  H    0.321855
    16  H    0.263140
    17  H    0.271530
    18  H    0.262922
    19  H    0.232379
    20  H    0.262386
    21  H    0.269760
    22  H    0.260565
    23  H    0.332374
    24  Cl   0.465713
    25  C    0.646771
    26  H    0.282352
    27  H    0.232050
    28  F   -0.138191
    29  F   -0.043738
    30  F   -0.042236
 Sum of Mulliken charges =  -0.00000

 Dipole moment (field-independent basis, Debye):
    X=             -6.5463    Y=             -4.8418    Z=             -0.8389  Tot=              8.1854
 Quadrupole moment (field-independent basis, Debye-Ang):
   XX=           -107.3145   YY=           -105.7067   ZZ=           -115.0713
   XY=              6.2872   XZ=              3.0939   YZ=              0.5121

  Exact polarizability: 225.981   4.979 162.098   0.866   0.127  99.498
 Approx polarizability: 219.505   8.496 216.835   1.085   1.108 132.563

                      1                      2                      3
                      A                      A                      A
 Frequencies --     17.2513                19.7817                51.9450
 Red. masses --      2.8975                 4.8969                 4.6685
 Frc consts  --      0.0005                 0.0011                 0.0074
 IR Inten    --      1.4209                 2.3560                 4.4264

                      4                      5                      6
                      A                      A                      A
 Frequencies --     54.7754                60.2385                70.8514
 Red. masses --      5.9716                 7.4300                 2.8825
 Frc consts  --      0.0106                 0.0159                 0.0085
 IR Inten    --      0.1137                 1.5351                 1.9052

                      7                      8                      9
                      A                      A                      A
 Frequencies --    104.4710               136.6997               162.4774
 Red. masses --      5.1837                 5.9747                16.6651
 Frc consts  --      0.0333                 0.0658                 0.2592
 IR Inten    --      0.1854                 5.0903                 1.1048

                     10                     11                     12
                      A                      A                      A
 Frequencies --    179.6990               187.9361               206.6071
 Red. masses --      4.4363                 3.2953                 6.1753
 Frc consts  --      0.0844                 0.0686                 0.1553
 IR Inten    --      0.1247                 0.8840                 3.1983

                     13                     14                     15
                      A                      A                      A
 Frequencies --    238.2283               242.5227               255.5667
 Red. masses --      3.0207                 1.3520                 6.1038
 Frc consts  --      0.1010                 0.0469                 0.2349
 IR Inten    --      0.5987                 0.4164                 5.6617

                     16                     17                     18
                      A                      A                      A
 Frequencies --    320.5877               334.8856               353.2255
 Red. masses --     12.5161                 2.4531                 1.9318
 Frc consts  --      0.7579                 0.1621                 0.1420
 IR Inten    --      1.1041                59.4983                31.3459

                     19                     20                     21
                      A                      A                      A
 Frequencies --    386.6115               417.8617               427.2482
 Red. masses --      5.7316                 5.2905                 5.3760
 Frc consts  --      0.5048                 0.5443                 0.5782
 IR Inten    --     10.8180                 8.0629                 0.3146

                     22                     23                     24
                      A                      A                      A
 Frequencies --    456.7387               473.3199               493.2728
 Red. masses --      4.3789                 8.3668                 1.3753
 Frc consts  --      0.5382                 1.1044                 0.1972
 IR Inten    --      4.0140                 6.5831                93.8448

                     25                     26                     27
                      A                      A                      A
 Frequencies --    519.3322               565.4451               599.1836
 Red. masses --      3.5167                12.9798                10.8626
 Frc consts  --      0.5588                 2.4451                 2.2977
 IR Inten    --     47.0213                 1.0800                 0.5775

                     28                     29                     30
                      A                      A                      A
 Frequencies --    629.8891               655.1216               724.1508
 Red. masses --      3.3506                 6.5699                 7.3743
 Frc consts  --      0.7832                 1.6613                 2.2784
 IR Inten    --     13.6532                 9.0040                13.1299

                     31                     32                     33
                      A                      A                      A
 Frequencies --    744.5915               754.4978               774.4327
 Red. masses --      5.1136                 1.2083                 5.5805
 Frc consts  --      1.6704                 0.4053                 1.9719
 IR Inten    --      0.3784                 6.7644                14.8930

                     34                     35                     36
                      A                      A                      A
 Frequencies --    776.8354               804.0002               840.8618
 Red. masses --      6.6169                 6.7367                 1.4956
 Frc consts  --      2.3527                 2.5657                 0.6230
 IR Inten    --      7.2566                 5.5130                44.2590

                     37                     38                     39
                      A                      A                      A
 Frequencies --    902.2881               921.0992               927.9423
 Red. masses --      1.1885                 1.3975                 1.9205
 Frc consts  --      0.5701                 0.6986                 0.9744
 IR Inten    --      2.1359                21.7796                 1.7268

                     40                     41                     42
                      A                      A                      A
 Frequencies --    954.2386               978.4504              1044.2536
 Red. masses --      4.2147                 1.3228                 4.1888
 Frc consts  --      2.2611                 0.7461                 2.6912
 IR Inten    --     24.1375                 2.7670                 8.1996

                     43                     44                     45
                      A                      A                      A
 Frequencies --   1046.3248              1076.4379              1142.8795
 Red. masses --      5.5299                 2.6507                 3.1949
 Frc consts  --      3.5670                 1.8097                 2.4587
 IR Inten    --     29.2716                 5.7237               130.2151

                     46                     47                     48
                      A                      A                      A
 Frequencies --   1144.4694              1165.5462              1180.9399
 Red. masses --      2.3271                 2.5730                 1.7234
 Frc consts  --      1.7959                 2.0594                 1.4161
 IR Inten    --     96.2223                 6.5958                18.1974

                     49                     50                     51
                      A                      A                      A
 Frequencies --   1181.9642              1208.3028              1219.2697
 Red. masses --      2.1354                12.9426                 2.4577
 Frc consts  --      1.7577                11.1333                 2.1527
 IR Inten    --     71.4344               279.0832               177.5403

                     52                     53                     54
                      A                      A                      A
 Frequencies --   1235.5781              1283.1054              1288.0711
 Red. masses --      1.8287                 1.8717                 1.3488
 Frc consts  --      1.6449                 1.8156                 1.3185
 IR Inten    --    282.2545                28.9512                43.6284

                     55                     56                     57
                      A                      A                      A
 Frequencies --   1301.7144              1332.4016              1347.3228
 Red. masses --      2.1668                 1.1770                 1.3015
 Frc consts  --      2.1632                 1.2311                 1.3920
 IR Inten    --     20.1492                31.0860                 0.5956

                     58                     59                     60
                      A                      A                      A
 Frequencies --   1349.2109              1361.8278              1423.1103
 Red. masses --      2.6197                 7.4042                 1.5576
 Frc consts  --      2.8097                 8.0904                 1.8586
 IR Inten    --     28.7193               662.7112                 2.7429

                     61                     62                     63
                      A                      A                      A
 Frequencies --   1433.2561              1449.6133              1509.3141
 Red. masses --      1.2889                 3.5351                 1.0628
 Frc consts  --      1.5600                 4.3768                 1.4265
 IR Inten    --      2.7999                88.8019                 6.0133

                     64                     65                     66
                      A                      A                      A
 Frequencies --   1523.5045              1524.7235              1534.8734
 Red. masses --      1.0507                 1.0615                 1.2426
 Frc consts  --      1.4369                 1.4540                 1.7248
 IR Inten    --     12.8845                 4.6580                30.8850

                     67                     68                     69
                      A                      A                      A
 Frequencies --   1543.3344              1562.5106              1577.4412
 Red. masses --      1.4070                 2.7682                 2.7594
 Frc consts  --      1.9745                 3.9820                 4.0455
 IR Inten    --    174.9817                92.5953               828.8246

                     70                     71                     72
                      A                      A                      A
 Frequencies --   1655.1664              1687.8730              1822.6967
 Red. masses --      4.6696                 6.2326                 8.6555
 Frc consts  --      7.5372                10.4616                16.9422
 IR Inten    --    195.7574               118.3162               279.1101

                     73                     74                     75
                      A                      A                      A
 Frequencies --   3052.7012              3055.3638              3072.2123
 Red. masses --      1.0640                 1.0726                 1.0369
 Frc consts  --      5.8421                 5.8995                 5.7663
 IR Inten    --     15.2299                33.7231                28.1539

                     76                     77                     78
                      A                      A                      A
 Frequencies --   3099.5484              3134.9726              3143.7249
 Red. masses --      1.0956                 1.0975                 1.1018
 Frc consts  --      6.2014                 6.3551                 6.4158
 IR Inten    --     13.3363                 0.8495                45.2748

                     79                     80                     81
                      A                      A                      A
 Frequencies --   3149.7903              3203.8761              3245.9358
 Red. masses --      1.1021                 1.0906                 1.0931
 Frc consts  --      6.4424                 6.5958                 6.7854
 IR Inten    --     25.7231                 8.2538                 0.5659

                     82                     83                     84
                      A                      A                      A
 Frequencies --   3288.1871              3636.0641              3652.7182
 Red. masses --      1.0925                 1.0772                 1.0767
 Frc consts  --      6.9598                 8.3906                 8.4643
 IR Inten    --     18.5282                19.6660                32.4757

 - Thermochemistry -
 -------------------
 Temperature   298.150 Kelvin.  Pressure   1.00000 Atm.
 Atom     1 has atomic number  6 and mass  12.00000

 Molecular mass:   280.05903 amu.
 Principal axes and moments of inertia in atomic units:
                           1         2         3
     Eigenvalues --  1603.54047********************
           X            1.00000  -0.00237   0.00050
           Y            0.00237   1.00000   0.00126
           Z           -0.00050  -0.00126   1.00000
 This molecule is an asymmetric top.
 Rotational symmetry number  1.
 Warning -- assumption of classical behavior for rotation
           may cause significant error
 Rotational temperatures (Kelvin)      0.05401     0.00602     0.00554
 Rotational constants (GHZ):           1.12547     0.12548     0.11548
 Zero-point vibrational energy     595843.7 (Joules/Mol)
                                  142.41007 (Kcal/Mol)
 Warning -- explicit consideration of  27 degrees of freedom as
           vibrations may cause significant error
 Vibrational temperatures:     24.82    28.46    74.74    78.81    86.67
          (Kelvin)            101.94   150.31   196.68   233.77   258.55
                              270.40   297.26   342.76   348.94   367.70
                              461.25   481.83   508.21   556.25   601.21
                              614.71   657.14   681.00   709.71   747.20
                              813.55   862.09   906.27   942.57  1041.89
                             1071.30  1085.55  1114.23  1117.69  1156.78
                             1209.81  1298.19  1325.25  1335.10  1372.93
                             1407.77  1502.45  1505.43  1548.75  1644.35
                             1646.63  1676.96  1699.11  1700.58  1738.48
                             1754.25  1777.72  1846.10  1853.24  1872.87
                             1917.03  1938.49  1941.21  1959.36  2047.54
                             2062.13  2085.67  2171.56  2191.98  2193.73
                             2208.34  2220.51  2248.10  2269.58  2381.41
                             2428.47  2622.45  4392.15  4395.98  4420.22
                             4459.55  4510.52  4523.11  4531.84  4609.66
                             4670.17  4730.96  5231.48  5255.44

 Zero-point correction=                           0.226945 (Hartree/Particle)
 Thermal correction to Energy=                    0.244853
 Thermal correction to Enthalpy=                  0.245797
 Thermal correction to Gibbs Free Energy=         0.177680
 Sum of electronic and zero-point Energies=          -1370.569458
 Sum of electronic and thermal Energies=             -1370.551550
 Sum of electronic and thermal Enthalpies=           -1370.550606
 Sum of electronic and thermal Free Energies=        -1370.618723

                     E (Thermal)             CV                S
                      KCal/Mol        Cal/Mol-Kelvin    Cal/Mol-Kelvin
 Total                  153.648             64.378            143.364
 Electronic               0.000              0.000              0.000
 Translational            0.889              2.981             42.788
 Rotational               0.889              2.981             34.243
 Vibrational            151.870             58.417             66.333
 Vibration     1          0.593              1.986              6.928
 Vibration     2          0.593              1.986              6.656
 Vibration     3          0.596              1.977              4.742
 Vibration     4          0.596              1.976              4.637
 Vibration     5          0.597              1.973              4.449
 Vibration     6          0.598              1.968              4.130
 Vibration     7          0.605              1.946              3.369
 Vibration     8          0.614              1.917              2.850
 Vibration     9          0.623              1.888              2.521
 Vibration    10          0.629              1.867              2.332
 Vibration    11          0.633              1.856              2.248
 Vibration    12          0.641              1.830              2.073
 Vibration    13          0.656              1.782              1.816
 Vibration    14          0.659              1.775              1.784
 Vibration    15          0.666              1.753              1.692
 Vibration    16          0.706              1.634              1.307
 Vibration    17          0.716              1.606              1.236
 Vibration    18          0.729              1.569              1.152
 Vibration    19          0.755              1.499              1.013
 Vibration    20          0.781              1.431              0.899
 Vibration    21          0.789              1.411              0.868
 Vibration    22          0.815              1.346              0.776
 Vibration    23          0.830              1.309              0.728
 Vibration    24          0.849              1.265              0.675
 Vibration    25          0.874              1.207              0.612
 Vibration    26          0.921              1.106              0.513
 Vibration    27          0.957              1.034              0.451

 Normal termination of Gaussian 09 at Thu Nov 14 10:34:48 2019.
