 Gaussian 09, Revision E.01,

 ----------------------------------------------------------------------
 # M062X/6-311+G* SCF=Tight INT(grid=ultrafine) OPT IOP(2/17=4) Empiric
 alDispersion=GD3 SCRF=(SMD,Solvent=n-Pentadecane) maxdisk=2147483648
 ----------------------------------------------------------------------

 ---------------------------------------
 CP19.M062X_6-311pGd_opt_Pentadecane_GD3
 ---------------------------------------
 Symbolic Z-matrix:
 Charge =  0 Multiplicity = 1

 SCF Done:  E(RM062X) =  -1370.81293802     A.U. after   16 cycles
 Optimization completed.
    -- Stationary point found.
 Normal termination of Gaussian 09 at Thu Nov 14 09:31:47 2019.
 Gaussian 09:  ES64L-G09RevE.01 30-Nov-2015

 ----------------------------------------------------------------------
 # M062X/6-311+G* SCF=Tight INT(grid=ultrafine) SCRF=(SMD,Solvent=n-Pen
 tadecane)EmpiricalDispersion=GD3 Freq=Noraman maxdisk=2147483648 geom=
 check guess=read IOP(2/17=4)
 ----------------------------------------------------------------------

 ---------------------------------------
 CP19.M062X_6-311pGd_opt_Pentadecane_GD3
 ---------------------------------------
 Structure from the checkpoint file:  "CP19.M062X_6-311pGd_opt_Pentadecane_GD3.chk"
 Charge =  0 Multiplicity = 1

                         Standard orientation:
 ---------------------------------------------------------------------
 Center     Atomic      Atomic             Coordinates (Angstroms)
 Number     Number       Type             X           Y           Z
 ---------------------------------------------------------------------
      1          6           0       -0.191294   -0.742935   -0.023472
      2          7           0       -1.567124   -0.956782   -0.052577
      3          6           0       -2.579615   -0.002947    0.007328
      4          8           0       -2.374088    1.186855    0.142211
      5          7           0       -3.831314   -0.539580   -0.072889
      6          6           0       -4.999158    0.329898   -0.121837
      7          6           0       -6.270270   -0.477272    0.097732
      8          6           0       -7.509044    0.409946    0.053710
      9          6           0        0.393893    0.528651   -0.032242
     10          6           0        1.775369    0.638897   -0.019268
     11          6           0        2.607406   -0.480059    0.004406
     12          6           0        2.011283   -1.738837    0.014201
     13          6           0        0.636389   -1.873567    0.000870
     14          1           0       -1.851134   -1.926446   -0.034208
     15          1           0       -3.941398   -1.475543   -0.436381
     16          1           0       -5.043389    0.861356   -1.079647
     17          1           0       -4.886730    1.084187    0.658586
     18          1           0       -6.204874   -0.988983    1.062716
     19          1           0       -6.348254   -1.254865   -0.671038
     20          1           0       -7.468167    1.181221    0.826958
     21          1           0       -8.418068   -0.172641    0.213781
     22          1           0       -7.602425    0.912562   -0.912365
     23          1           0       -0.218048    1.416653   -0.044454
     24         17           0        2.448388    2.245172   -0.033713
     25          6           0        4.103007   -0.357430    0.019917
     26          1           0        2.634293   -2.624086    0.033182
     27          1           0        0.195571   -2.864728    0.008951
     28          9           0        4.694339   -1.562744    0.042271
     29          9           0        4.578681    0.281596   -1.060576
     30          9           0        4.554092    0.309703    1.093809
 ---------------------------------------------------------------------

 SCF Done:  E(RM062X) =  -1370.81293802     A.U. after    2 cycles

 The electronic state is 1-A.
 Alpha  occ. eigenvalues -- -102.68276 -25.27988 -25.27420 -25.27414 -19.59983
 Alpha  occ. eigenvalues --  -14.80056 -14.77810 -10.80595 -10.68778 -10.62844
 Alpha  occ. eigenvalues --  -10.62113 -10.58052 -10.57499 -10.57393 -10.56418
 Alpha  occ. eigenvalues --  -10.56055 -10.54359 -10.52922  -9.82562  -7.55080
 Alpha  occ. eigenvalues --   -7.54396  -7.54375  -1.47100  -1.37732  -1.37331
 Alpha  occ. eigenvalues --   -1.19381  -1.07726  -1.04299  -1.01263  -0.95068
 Alpha  occ. eigenvalues --   -0.90277  -0.88419  -0.85291  -0.81753  -0.78480
 Alpha  occ. eigenvalues --   -0.74223  -0.72622  -0.69740  -0.69513  -0.69388
 Alpha  occ. eigenvalues --   -0.68263  -0.66885  -0.64418  -0.61927  -0.57695
 Alpha  occ. eigenvalues --   -0.57655  -0.56815  -0.55940  -0.55074  -0.54429
 Alpha  occ. eigenvalues --   -0.53569  -0.53236  -0.52973  -0.51920  -0.51282
 Alpha  occ. eigenvalues --   -0.51061  -0.50305  -0.49102  -0.47753  -0.46377
 Alpha  occ. eigenvalues --   -0.45792  -0.43911  -0.43285  -0.42787  -0.41178
 Alpha  occ. eigenvalues --   -0.40455  -0.38658  -0.38520  -0.36120  -0.33464
 Alpha  occ. eigenvalues --   -0.31786  -0.29087
 Alpha virt. eigenvalues --   -0.00881  -0.00385  -0.00108   0.01702   0.02262
 Alpha virt. eigenvalues --    0.02628   0.03188   0.03490   0.04185   0.04937
 Alpha virt. eigenvalues --    0.05176   0.05528   0.06149   0.06416   0.06898

 Mulliken charges:
               1
     1  C   -0.712603
     2  N   -0.381507
     3  C    0.183664
     4  O   -0.367676
     5  N   -0.302973
     6  C   -0.529493
     7  C   -0.127758
     8  C   -1.034841
     9  C   -0.265101
    10  C    0.748209
    11  C   -1.088094
    12  C   -0.290519
    13  C   -0.152843
    14  H    0.377017
    15  H    0.354509
    16  H    0.269368
    17  H    0.273641
    18  H    0.266592
    19  H    0.242017
    20  H    0.266720
    21  H    0.273261
    22  H    0.264492
    23  H    0.336711
    24  Cl   0.447173
    25  C    0.649389
    26  H    0.295578
    27  H    0.255186
    28  F   -0.142335
    29  F   -0.054434
    30  F   -0.053347
 Sum of Mulliken charges =  -0.00000

 Dipole moment (field-independent basis, Debye):
    X=             -7.4625    Y=             -5.8741    Z=             -0.8132  Tot=              9.5318
 Quadrupole moment (field-independent basis, Debye-Ang):
   XX=           -107.2368   YY=           -104.9641   ZZ=           -115.3504
   XY=              7.5601   XZ=              2.9075   YZ=              0.6513

  Exact polarizability: 248.954   6.095 185.883   1.342  -0.019 110.910
 Approx polarizability: 222.220   8.375 215.286   1.422   0.814 132.555

                      1                      2                      3
                      A                      A                      A
 Frequencies --     20.4991                28.9320                51.0989
 Red. masses --      5.1785                 3.0588                 4.4458
 Frc consts  --      0.0013                 0.0015                 0.0068
 IR Inten    --      0.3477                 5.3004                 7.2390

                      4                      5                      6
                      A                      A                      A
 Frequencies --     55.5950                59.0560                71.2807
 Red. masses --      4.7676                 8.3705                 2.8822
 Frc consts  --      0.0087                 0.0172                 0.0086
 IR Inten    --      1.0905                 1.4742                 1.8717

                      7                      8                      9
                      A                      A                      A
 Frequencies --    107.5970               134.5886               161.4663
 Red. masses --      5.2650                 5.7682                16.2947
 Frc consts  --      0.0359                 0.0616                 0.2503
 IR Inten    --      0.2198                 7.8903                 1.5598

                     10                     11                     12
                      A                      A                      A
 Frequencies --    180.1877               190.8632               207.6877
 Red. masses --      5.0969                 3.5252                 6.1982
 Frc consts  --      0.0975                 0.0757                 0.1575
 IR Inten    --      0.3163                 2.1314                 2.7808

                     13                     14                     15
                      A                      A                      A
 Frequencies --    233.1212               242.2499               254.8269
 Red. masses --      1.1857                 5.5287                 5.3859
 Frc consts  --      0.0380                 0.1912                 0.2061
 IR Inten    --      0.0810                 0.0754                 8.4157

                     16                     17                     18
                      A                      A                      A
 Frequencies --    320.3051               328.3181               347.2795
 Red. masses --     12.5774                 1.6385                 2.6812
 Frc consts  --      0.7603                 0.1041                 0.1905
 IR Inten    --      1.1254                95.6066                15.4149

                     19                     20                     21
                      A                      A                      A
 Frequencies --    387.1792               419.4924               426.5217
 Red. masses --      6.2016                 5.7560                 5.5553
 Frc consts  --      0.5477                 0.5968                 0.5954
 IR Inten    --     12.5744                 4.2729                 1.5685

                     22                     23                     24
                      A                      A                      A
 Frequencies --    456.6513               473.4298               516.2196
 Red. masses --      4.3105                 9.1465                 4.6046
 Frc consts  --      0.5296                 1.2079                 0.7229
 IR Inten    --      3.6637                 8.4407                26.4247

                     25                     26                     27
                      A                      A                      A
 Frequencies --    540.3730               565.6995               598.9374
 Red. masses --      1.1770                12.8376                10.7624
 Frc consts  --      0.2025                 2.4205                 2.2747
 IR Inten    --    139.8678                 2.7907                 0.9885

                     28                     29                     30
                      A                      A                      A
 Frequencies --    630.0489               654.3612               723.2529
 Red. masses --      3.3898                 6.8351                 7.5744
 Frc consts  --      0.7928                 1.7244                 2.3344
 IR Inten    --     15.8174                12.7264                16.4242

                     31                     32                     33
                      A                      A                      A
 Frequencies --    743.1205               756.9568               774.8321
 Red. masses --      5.0857                 1.1945                 8.0296
 Frc consts  --      1.6547                 0.4033                 2.8403
 IR Inten    --      0.3507                 9.0737                14.7951

                     34                     35                     36
                      A                      A                      A
 Frequencies --    777.3851               802.4552               845.8801
 Red. masses --      5.2254                 7.0449                 1.4860
 Frc consts  --      1.8606                 2.6728                 0.6264
 IR Inten    --      7.3134                 5.0129                56.9820

                     37                     38                     39
                      A                      A                      A
 Frequencies --    903.4360               919.3157               927.2437
 Red. masses --      1.1915                 1.3997                 1.9459
 Frc consts  --      0.5730                 0.6970                 0.9857
 IR Inten    --      2.3525                26.8682                 2.2049

                     40                     41                     42
                      A                      A                      A
 Frequencies --    952.0747               984.9471              1042.6838
 Red. masses --      4.0496                 1.3231                 5.4517
 Frc consts  --      2.1627                 0.7562                 3.4921
 IR Inten    --     29.2243                 3.1715                40.3484

                     43                     44                     45
                      A                      A                      A
 Frequencies --   1045.9553              1078.4384              1140.0546
 Red. masses --      4.2347                 2.6008                 2.8302
 Frc consts  --      2.7296                 1.7821                 2.1673
 IR Inten    --      4.8293                 8.2495               279.2326

                     46                     47                     48
                      A                      A                      A
 Frequencies --   1145.3780              1164.9359              1175.7010
 Red. masses --      2.6391                 2.5206                 3.1256
 Frc consts  --      2.0399                 2.0154                 2.5455
 IR Inten    --     14.0895                14.1665               140.3983

                     49                     50                     51
                      A                      A                      A
 Frequencies --   1182.7647              1182.9016              1210.5101
 Red. masses --      1.8023                12.6442                 1.8506
 Frc consts  --      1.4855                10.4241                 1.5977
 IR Inten    --      5.2510               330.6657               149.1096

                     52                     53                     54
                      A                      A                      A
 Frequencies --   1248.6111              1285.5119              1287.3079
 Red. masses --      1.7645                 1.5923                 1.4084
 Frc consts  --      1.6208                 1.5504                 1.3751
 IR Inten    --    408.0093                70.3484                27.4038

                     55                     56                     57
                      A                      A                      A
 Frequencies --   1304.4779              1331.6082              1351.8532
 Red. masses --      2.6499                 1.1816                 2.3166
 Frc consts  --      2.6567                 1.2344                 2.4944
 IR Inten    --     17.7229                46.2852               180.3776

                     58                     59                     60
                      A                      A                      A
 Frequencies --   1352.1847              1361.8705              1424.4743
 Red. masses --      1.3918                 7.2325                 1.5137
 Frc consts  --      1.4993                 7.9033                 1.8096
 IR Inten    --     13.7037               697.8041                 4.4595

                     61                     62                     63
                      A                      A                      A
 Frequencies --   1431.6595              1450.1199              1502.8637
 Red. masses --      1.3220                 3.6924                 1.0613
 Frc consts  --      1.5965                 4.5747                 1.4123
 IR Inten    --      2.5142               101.7511                 7.0232

                     64                     65                     66
                      A                      A                      A
 Frequencies --   1516.6493              1519.2389              1533.3755
 Red. masses --      1.0381                 1.0714                 1.0941
 Frc consts  --      1.4068                 1.4570                 1.5156
 IR Inten    --     14.3063                 2.8114                10.6621

                     67                     68                     69
                      A                      A                      A
 Frequencies --   1552.6477              1566.2897              1588.4539
 Red. masses --      1.9312                 2.7412                 2.4779
 Frc consts  --      2.7430                 3.9622                 3.6837
 IR Inten    --    469.4816                81.2050               696.9889

                     70                     71                     72
                      A                      A                      A
 Frequencies --   1659.5935              1686.4983              1803.0669
 Red. masses --      3.7100                 5.5840                 7.4574
 Frc consts  --      6.0205                 9.3577                14.2844
 IR Inten    --    322.0044               100.7878               395.9587

                     73                     74                     75
                      A                      A                      A
 Frequencies --   3056.2591              3059.2487              3071.0383
 Red. masses --      1.0655                 1.0686                 1.0372
 Frc consts  --      5.8637                 5.8927                 5.7635
 IR Inten    --     13.1382                46.9800                34.8355

                     76                     77                     78
                      A                      A                      A
 Frequencies --   3099.8596              3133.9223              3142.1081
 Red. masses --      1.0975                 1.0985                 1.1019
 Frc consts  --      6.2135                 6.3564                 6.4097
 IR Inten    --     15.1672                 1.2681                58.8168

                     79                     80                     81
                      A                      A                      A
 Frequencies --   3147.4448              3209.8634              3245.5739
 Red. masses --      1.1022                 1.0910                 1.0936
 Frc consts  --      6.4329                 6.6228                 6.7870
 IR Inten    --     31.4876                 6.3989                 0.4282

                     82                     83                     84
                      A                      A                      A
 Frequencies --   3291.3658              3634.2813              3643.5574
 Red. masses --      1.0924                 1.0779                 1.0773
 Frc consts  --      6.9727                 8.3881                 8.4266
 IR Inten    --     21.9589                 6.9484                93.9035

 - Thermochemistry -
 -------------------
 Temperature   298.150 Kelvin.  Pressure   1.00000 Atm.
 Atom     1 has atomic number  6 and mass  12.00000

 Molecular mass:   280.05903 amu.
 Principal axes and moments of inertia in atomic units:
                           1         2         3
     Eigenvalues --  1602.55416********************
           X            1.00000  -0.00203   0.00015
           Y            0.00203   1.00000   0.00093
           Z           -0.00015  -0.00093   1.00000
 This molecule is an asymmetric top.
 Rotational symmetry number  1.
 Warning -- assumption of classical behavior for rotation
           may cause significant error
 Rotational temperatures (Kelvin)      0.05405     0.00602     0.00554
 Rotational constants (GHZ):           1.12617     0.12534     0.11536
 Zero-point vibrational energy     595961.4 (Joules/Mol)
                                  142.43820 (Kcal/Mol)
 Warning -- explicit consideration of  27 degrees of freedom as
           vibrations may cause significant error
 Vibrational temperatures:     29.49    41.63    73.52    79.99    84.97
          (Kelvin)            102.56   154.81   193.64   232.31   259.25
                              274.61   298.82   335.41   348.54   366.64
                              460.85   472.38   499.66   557.06   603.56
                              613.67   657.02   681.16   742.72   777.48
                              813.91   861.74   906.50   941.48  1040.60
                             1069.18  1089.09  1114.81  1118.48  1154.55
                             1217.03  1299.84  1322.69  1334.10  1369.82
                             1417.12  1500.19  1504.89  1551.63  1640.28
                             1647.94  1676.08  1691.57  1701.73  1701.93
                             1741.65  1796.47  1849.56  1852.15  1876.85
                             1915.88  1945.01  1945.49  1959.43  2049.50
                             2059.84  2086.40  2162.28  2182.12  2185.84
                             2206.18  2233.91  2253.54  2285.43  2387.78
                             2426.49  2594.21  4397.27  4401.57  4418.53
                             4460.00  4509.01  4520.79  4528.47  4618.27
                             4669.65  4735.54  5228.91  5242.26

 Zero-point correction=                           0.226990 (Hartree/Particle)
 Thermal correction to Energy=                    0.244856
 Thermal correction to Enthalpy=                  0.245800
 Thermal correction to Gibbs Free Energy=         0.178218
 Sum of electronic and zero-point Energies=          -1370.585948
 Sum of electronic and thermal Energies=             -1370.568082
 Sum of electronic and thermal Enthalpies=           -1370.567138
 Sum of electronic and thermal Free Energies=        -1370.634720

                     E (Thermal)             CV                S
                      KCal/Mol        Cal/Mol-Kelvin    Cal/Mol-Kelvin
 Total                  153.649             64.313            142.239
 Electronic               0.000              0.000              0.000
 Translational            0.889              2.981             42.788
 Rotational               0.889              2.981             34.245
 Vibrational            151.872             58.352             65.206
 Vibration     1          0.593              1.986              6.585
 Vibration     2          0.593              1.984              5.901
 Vibration     3          0.595              1.977              4.774
 Vibration     4          0.596              1.975              4.608
 Vibration     5          0.596              1.974              4.488
 Vibration     6          0.598              1.968              4.118
 Vibration     7          0.606              1.943              3.312
 Vibration     8          0.613              1.919              2.879
 Vibration     9          0.622              1.890              2.533
 Vibration    10          0.629              1.867              2.326
 Vibration    11          0.634              1.852              2.219
 Vibration    12          0.641              1.829              2.064
 Vibration    13          0.654              1.790              1.855
 Vibration    14          0.658              1.776              1.786
 Vibration    15          0.665              1.755              1.697
 Vibration    16          0.706              1.635              1.309
 Vibration    17          0.712              1.619              1.268
 Vibration    18          0.725              1.581              1.179
 Vibration    19          0.756              1.498              1.011
 Vibration    20          0.782              1.428              0.894
 Vibration    21          0.788              1.413              0.870
 Vibration    22          0.815              1.346              0.776
 Vibration    23          0.830              1.309              0.728
 Vibration    24          0.871              1.214              0.619
 Vibration    25          0.895              1.161              0.564
 Vibration    26          0.922              1.105              0.513
 Vibration    27          0.957              1.034              0.451

 Optimization completed.
    -- Stationary point found.
 Normal termination of Gaussian 09 at Thu Nov 14 10:39:42 2019.
