 Gaussian 09, Revision E.01,

 ----------------------------------------------------------------------
 # M062X/6-311+G* SCF=Tight INT(grid=ultrafine) OPT=CalcFC IOP(2/17=4)
 EmpiricalDispersion=GD3 maxdisk=671088640
 ----------------------------------------------------------------------

 ------------------------------
 carboxy.M062X_6-311pGd_opt_GD3
 ------------------------------
 Symbolic Z-matrix:
 Charge = -1 Multiplicity = 1

 SCF Done:  E(RM062X) =  -267.784534343     A.U. after   14 cycles
 SCF Done:  E(RM062X) =  -267.799922541     A.U. after   14 cycles
 SCF Done:  E(RM062X) =  -267.800184117     A.U. after   14 cycles
 SCF Done:  E(RM062X) =  -267.797902325     A.U. after   14 cycles
 SCF Done:  E(RM062X) =  -267.800309044     A.U. after   11 cycles
 SCF Done:  E(RM062X) =  -267.800629391     A.U. after   13 cycles
 SCF Done:  E(RM062X) =  -267.800671417     A.U. after   12 cycles
 SCF Done:  E(RM062X) =  -267.800745845     A.U. after   12 cycles
 SCF Done:  E(RM062X) =  -267.800757893     A.U. after   11 cycles
 SCF Done:  E(RM062X) =  -267.800761679     A.U. after   10 cycles
 SCF Done:  E(RM062X) =  -267.800764261     A.U. after   11 cycles
 SCF Done:  E(RM062X) =  -267.800765447     A.U. after   10 cycles
 SCF Done:  E(RM062X) =  -267.800765549     A.U. after   10 cycles
 SCF Done:  E(RM062X) =  -267.800765562     A.U. after    9 cycles
 Optimization completed.
    -- Stationary point found.
 Normal termination of Gaussian 09 at Mon Nov 18 12:30:21 2019.
 Gaussian 09:  ES64L-G09RevE.01 30-Nov-2015

 ----------------------------------------------------------------------
 # M062X/6-311+G* SCF=Tight INT(grid=ultrafine) EmpiricalDispersion=GD3
  Freq=Noraman maxdisk=671088640 geom=check guess=read IOP(2/17=4)
 ----------------------------------------------------------------------

 ------------------------------
 carboxy.M062X_6-311pGd_opt_GD3
 ------------------------------
 Structure from the checkpoint file:  "carboxy.M062X_6-311pGd_opt_GD3.chk"
 Charge = -1 Multiplicity = 1

                         Standard orientation:
 ---------------------------------------------------------------------
 Center     Atomic      Atomic             Coordinates (Angstroms)
 Number     Number       Type             X           Y           Z
 ---------------------------------------------------------------------
      1          6           0        0.706074    0.069975    0.000002
      2          6           0       -0.620613   -0.757030    0.000065
      3          6           0       -1.892459    0.082369   -0.000049
      4          8           0        0.585320    1.312681    0.000030
      5          8           0        1.746492   -0.621255   -0.000050
      6          1           0       -0.589250   -1.418466    0.873115
      7          1           0       -0.589212   -1.418673   -0.872825
      8          1           0       -1.918595    0.736552    0.873868
      9          1           0       -2.796797   -0.538950    0.000089
     10          1           0       -1.918656    0.736242   -0.874198
 ---------------------------------------------------------------------

 SCF Done:  E(RM062X) =  -267.800765562     A.U. after    1 cycles

 The electronic state is 1-A.
 Alpha  occ. eigenvalues --  -19.36108 -19.35681 -10.42647 -10.37180 -10.35993
 Alpha  occ. eigenvalues --   -0.94781  -0.85481  -0.69416  -0.55402  -0.39204
 Alpha  occ. eigenvalues --   -0.35952  -0.33767  -0.30216  -0.27670  -0.27668
 Alpha  occ. eigenvalues --   -0.25235  -0.22842  -0.11537  -0.11089  -0.10497
 Alpha virt. eigenvalues --    0.13520   0.16150   0.17158   0.18461   0.20944
 Alpha virt. eigenvalues --    0.21054   0.21317   0.22328   0.22764   0.25700
 Alpha virt. eigenvalues --    0.26509   0.28693   0.29356   0.34364   0.34757

 Mulliken charges:
               1
     1  C    0.103499
     2  C   -0.315653
     3  C   -0.919497
     4  O   -0.500892
     5  O   -0.509250
     6  H    0.222606
     7  H    0.222608
     8  H    0.249137
     9  H    0.198320
    10  H    0.249122
 Sum of Mulliken charges =  -1.00000

 Dipole moment (field-independent basis, Debye):
    X=             -5.3942    Y=             -1.7595    Z=              0.0001  Tot=              5.6740
 Quadrupole moment (field-independent basis, Debye-Ang):
   XX=            -47.2964   YY=            -41.7222   ZZ=            -32.3403
   XY=              1.0318   XZ=              0.0002   YZ=             -0.0002

  Exact polarizability:  56.477  -1.994  53.882  -0.000  -0.000  37.841
 Approx polarizability:  55.718  -4.442  62.895  -0.001   0.000  44.475

                      1                      2                      3
                      A                      A                      A
 Frequencies --     21.8884               203.4486               271.0427
 Red. masses --      2.1720                 1.1267                 3.7508
 Frc consts  --      0.0006                 0.0275                 0.1623
 IR Inten    --      0.7851                 0.6211                 3.5017

                      4                      5                      6
                      A                      A                      A
 Frequencies --    496.1670               582.5814               636.2876
 Red. masses --      5.3648                 1.9040                 4.1527
 Frc consts  --      0.7781                 0.3808                 0.9906
 IR Inten    --      6.2973                 3.5744                 5.8014

                      7                      8                      9
                      A                      A                      A
 Frequencies --    822.5513               856.0215              1002.2416
 Red. masses --      1.4635                 4.9675                 1.5863
 Frc consts  --      0.5834                 2.1446                 0.9388
 IR Inten    --      7.6582                67.7382                 2.0941

                     10                     11                     12
                      A                      A                      A
 Frequencies --   1088.0922              1102.1362              1280.5123
 Red. masses --      1.7753                 2.4487                 1.2020
 Frc consts  --      1.2384                 1.7525                 1.1613
 IR Inten    --      0.9378                 5.2642                 0.7537

                     13                     14                     15
                      A                      A                      A
 Frequencies --   1306.3243              1390.8879              1417.0424
 Red. masses --      1.5933                 2.6486                 1.9431
 Frc consts  --      1.6020                 3.0189                 2.2988
 IR Inten    --     15.6220               166.4309               146.4781

                     16                     17                     18
                      A                      A                      A
 Frequencies --   1483.2298              1501.2144              1515.5002
 Red. masses --      1.1016                 1.0385                 1.0531
 Frc consts  --      1.4279                 1.3790                 1.4250
 IR Inten    --      2.3607                 3.8303                14.0894

                     19                     20                     21
                      A                      A                      A
 Frequencies --   1713.2660              3032.5449              3052.9995
 Red. masses --     11.3660                 1.0492                 1.0589
 Frc consts  --     19.6565                 5.6846                 5.8152
 IR Inten    --    714.5252                91.6589                45.8164

                     22                     23                     24
                      A                      A                      A
 Frequencies --   3082.5672              3112.2388              3138.3143
 Red. masses --      1.1018                 1.0881                 1.1019
 Frc consts  --      6.1687                 6.2098                 6.3944
 IR Inten    --     28.0850                44.8819                51.2269

 - Thermochemistry -
 -------------------
 Temperature   298.150 Kelvin.  Pressure   1.00000 Atm.
 Atom     1 has atomic number  6 and mass  12.00000

 Molecular mass:    73.02895 amu.
 Principal axes and moments of inertia in atomic units:
                           1         2         3
     Eigenvalues --   175.75823 450.35367 604.14341
           X            0.99997   0.00714   0.00000
           Y           -0.00714   0.99997  -0.00001
           Z           -0.00000   0.00001   1.00000
 This molecule is an asymmetric top.
 Rotational symmetry number  1.
 Rotational temperatures (Kelvin)      0.49280     0.19232     0.14337
 Rotational constants (GHZ):          10.26832     4.00739     2.98727
 Zero-point vibrational energy     204017.7 (Joules/Mol)
                                   48.76141 (Kcal/Mol)
 Warning -- explicit consideration of   5 degrees of freedom as
           vibrations may cause significant error
 Vibrational temperatures:     31.49   292.72   389.97   713.87   838.20
          (Kelvin)            915.47  1183.47  1231.62  1442.00  1565.52
                             1585.73  1842.37  1879.51  2001.17  2038.81
                             2134.03  2159.91  2180.46  2465.00  4363.15
                             4392.58  4435.12  4477.81  4515.33

 Zero-point correction=                           0.077706 (Hartree/Particle)
 Thermal correction to Energy=                    0.083262
 Thermal correction to Enthalpy=                  0.084207
 Thermal correction to Gibbs Free Energy=         0.047836
 Sum of electronic and zero-point Energies=           -267.723059
 Sum of electronic and thermal Energies=              -267.717503
 Sum of electronic and thermal Enthalpies=            -267.716559
 Sum of electronic and thermal Free Energies=         -267.752929

                     E (Thermal)             CV                S
                      KCal/Mol        Cal/Mol-Kelvin    Cal/Mol-Kelvin
 Total                   52.248             17.685             76.548
 Electronic               0.000              0.000              0.000
 Translational            0.889              2.981             38.781
 Rotational               0.889              2.981             25.373
 Vibrational             50.471             11.723             12.394
 Vibration     1          0.593              1.985              6.455
 Vibration     2          0.639              1.835              2.102
 Vibration     3          0.675              1.727              1.590
 Vibration     4          0.852              1.259              0.668
 Vibration     5          0.939              1.069              0.481

 Optimization completed.
    -- Stationary point found.
 Normal termination of Gaussian 09 at Mon Nov 18 12:31:20 2019.
