 Gaussian 09, Revision E.01,

 ----------------------------------------------------------------------
 # M062X/6-311+G* SCF=Tight INT(grid=ultrafine) OPT=CalcFC IOP(2/17=4)
 EmpiricalDispersion=GD3 SCRF=(SMD,Solvent=n-Pentadecane) maxdisk=67108
 8640
 ----------------------------------------------------------------------

 ------------------------------------------
 carboxy.M062X_6-311pGd_opt_Pentadecane_GD3
 ------------------------------------------
 Symbolic Z-matrix:
 Charge = -1 Multiplicity = 1

 SCF Done:  E(RM062X) =  -267.834172431     A.U. after   14 cycles
 SCF Done:  E(RM062X) =  -267.848125426     A.U. after   13 cycles
 SCF Done:  E(RM062X) =  -267.848838144     A.U. after   12 cycles
 SCF Done:  E(RM062X) =  -267.848895299     A.U. after   11 cycles
 Optimization completed.
    -- Stationary point found.
 Normal termination of Gaussian 09 at Mon Nov 18 12:28:50 2019.
 Gaussian 09:  ES64L-G09RevE.01 30-Nov-2015

 ----------------------------------------------------------------------
 # M062X/6-311+G* SCF=Tight INT(grid=ultrafine) EmpiricalDispersion=GD3
  SCRF=(SMD,Solvent=n-Pentadecane) Freq=Noraman maxdisk=671088640 geom=
 check guess=read IOP(2/17=4)
 ----------------------------------------------------------------------

 ------------------------------------------
 carboxy.M062X_6-311pGd_opt_Pentadecane_GD3
 ------------------------------------------
 Structure from the checkpoint file:  "carboxy.M062X_6-311pGd_opt_Pentadecane_GD3.chk"
 Charge = -1 Multiplicity = 1

                         Standard orientation:
 ---------------------------------------------------------------------
 Center     Atomic      Atomic             Coordinates (Angstroms)
 Number     Number       Type             X           Y           Z
 ---------------------------------------------------------------------
      1          6           0        0.000000   -0.703808    0.000000
      2          6           0       -0.690209    0.689742   -0.000000
      3          6           0        0.261543    1.878014   -0.000000
      4          8           0        1.249040   -0.716568    0.000000
      5          8           0       -0.783003   -1.679753    0.000000
      6          1           0       -1.351761    0.723881    0.872700
      7          1           0       -1.351761    0.723881   -0.872700
      8          1           0        0.912862    1.853740    0.876323
      9          1           0       -0.278508    2.831630   -0.000000
     10          1           0        0.912862    1.853740   -0.876323
 ---------------------------------------------------------------------

 SCF Done:  E(RM062X) =  -267.848895299     A.U. after    1 cycles

 The electronic state is 1-A'.
 Alpha  occ. eigenvalues --  -19.44598 -19.44206 -10.50998 -10.44269 -10.43647
 Alpha  occ. eigenvalues --   -1.03309  -0.93859  -0.76970  -0.63033  -0.47319
 Alpha  occ. eigenvalues --   -0.43577  -0.41721  -0.38361  -0.35625  -0.35466
 Alpha  occ. eigenvalues --   -0.32947  -0.30662  -0.20112  -0.19538  -0.19081
 Alpha virt. eigenvalues --    0.08092   0.10299   0.11348   0.11783   0.14340
 Alpha virt. eigenvalues --    0.14589   0.15023   0.15464   0.16044   0.19141
 Alpha virt. eigenvalues --    0.20029   0.21013   0.21653   0.27517   0.28494

 Mulliken charges:
               1
     1  C    0.120154
     2  C   -0.326456
     3  C   -0.923752
     4  O   -0.526126
     5  O   -0.536727
     6  H    0.234559
     7  H    0.234559
     8  H    0.251916
     9  H    0.219957
    10  H    0.251916
 Sum of Mulliken charges =  -1.00000

 Dipole moment (field-independent basis, Debye):
    X=             -1.3927    Y=              6.1295    Z=             -0.0000  Tot=              6.2857
 Quadrupole moment (field-independent basis, Debye-Ang):
   XX=            -41.8481   YY=            -46.5157   ZZ=            -32.1827
   XY=             -1.6600   XZ=              0.0000   YZ=             -0.0000

  Exact polarizability:  59.196   2.674  59.179   0.000   0.000  41.128
 Approx polarizability:  62.352   3.856  53.306   0.000  -0.000  43.912

                      1                      2                      3
                     A"                     A"                     A'
 Frequencies --     36.0259               217.9418               270.1636
 Red. masses --      2.2277                 1.1134                 3.8121
 Frc consts  --      0.0017                 0.0312                 0.1639
 IR Inten    --      1.2945                 0.7329                 4.0765

                      4                      5                      6
                     A'                     A"                     A'
 Frequencies --    499.1388               584.8649               640.5982
 Red. masses --      5.2825                 1.9138                 4.2036
 Frc consts  --      0.7754                 0.3857                 1.0164
 IR Inten    --      9.4411                 3.9645                 9.9062

                      7                      8                      9
                     A"                     A'                     A'
 Frequencies --    826.3674               865.7592              1008.2079
 Red. masses --      1.4581                 4.6424                 1.5811
 Frc consts  --      0.5867                 2.0502                 0.9469
 IR Inten    --     10.5229                67.8435                 3.6472

                     10                     11                     12
                     A"                     A'                     A"
 Frequencies --   1092.5223              1106.9963              1282.6395
 Red. masses --      1.7783                 2.4291                 1.1998
 Frc consts  --      1.2506                 1.7538                 1.1629
 IR Inten    --      0.9269                 6.4237                 0.4799

                     13                     14                     15
                     A'                     A'                     A'
 Frequencies --   1313.4722              1405.5456              1428.0537
 Red. masses --      1.6339                 1.9577                 2.5736
 Frc consts  --      1.6608                 2.2787                 3.0923
 IR Inten    --     21.6567               120.5107               222.9550

                     16                     17                     18
                     A'                     A"                     A'
 Frequencies --   1480.0634              1504.9929              1515.0688
 Red. masses --      1.1075                 1.0383                 1.0545
 Frc consts  --      1.4294                 1.3856                 1.4261
 IR Inten    --      3.0384                 6.1147                18.1305

                     19                     20                     21
                     A'                     A'                     A'
 Frequencies --   1695.4223              3047.9442              3058.2805
 Red. masses --     11.3781                 1.0496                 1.0552
 Frc consts  --     19.2697                 5.7450                 5.8148
 IR Inten    --    861.2330                73.6967                42.3598

                     22                     23                     24
                     A"                     A'                     A"
 Frequencies --   3087.2683              3119.7164              3143.2257
 Red. masses --      1.1018                 1.0927                 1.1025
 Frc consts  --      6.1873                 6.2660                 6.4179
 IR Inten    --     27.7394                50.2593                54.8331

 - Thermochemistry -
 -------------------
 Temperature   298.150 Kelvin.  Pressure   1.00000 Atm.
 Atom     1 has atomic number  6 and mass  12.00000

 Molecular mass:    73.02895 amu.
 Principal axes and moments of inertia in atomic units:
                           1         2         3
     Eigenvalues --   175.10782 451.30319 604.39159
           X            0.09967   0.99502   0.00000
           Y            0.99502  -0.09967   0.00000
           Z            0.00000   0.00000   1.00000
 This molecule is an asymmetric top.
 Rotational symmetry number  1.
 Rotational temperatures (Kelvin)      0.49463     0.19192     0.14331
 Rotational constants (GHZ):          10.30646     3.99896     2.98605
 Zero-point vibrational energy     204742.5 (Joules/Mol)
                                   48.93464 (Kcal/Mol)
 Warning -- explicit consideration of   5 degrees of freedom as
           vibrations may cause significant error
 Vibrational temperatures:     51.83   313.57   388.70   718.15   841.49
          (Kelvin)            921.68  1188.96  1245.63  1450.58  1571.89
                             1592.72  1845.43  1889.79  2022.26  2054.65
                             2129.48  2165.35  2179.84  2439.33  4385.31
                             4400.18  4441.88  4488.57  4522.40

 Zero-point correction=                           0.077982 (Hartree/Particle)
 Thermal correction to Energy=                    0.083475
 Thermal correction to Enthalpy=                  0.084419
 Thermal correction to Gibbs Free Energy=         0.048593
 Sum of electronic and zero-point Energies=           -267.770913
 Sum of electronic and thermal Energies=              -267.765420
 Sum of electronic and thermal Enthalpies=            -267.764476
 Sum of electronic and thermal Free Energies=         -267.800303

                     E (Thermal)             CV                S
                      KCal/Mol        Cal/Mol-Kelvin    Cal/Mol-Kelvin
 Total                   52.381             17.596             75.403
 Electronic               0.000              0.000              0.000
 Translational            0.889              2.981             38.781
 Rotational               0.889              2.981             25.372
 Vibrational             50.604             11.634             11.251
 Vibration     1          0.594              1.982              5.466
 Vibration     2          0.646              1.814              1.976
 Vibration     3          0.674              1.728              1.595
 Vibration     4          0.855              1.252              0.660
 Vibration     5          0.942              1.064              0.476

 Optimization completed.
    -- Stationary point found.
 Normal termination of Gaussian 09 at Mon Nov 18 12:29:47 2019.
