 Gaussian 09, Revision E.01,

 ----------------------------------------------------------------------
 # M062X/6-311+G* SCF=Tight INT(grid=ultrafine) OPT=CalcFC IOP(2/17=4)
 EmpiricalDispersion=GD3 SCRF=(SMD,Solvent=h2o) maxdisk=671088640
 ----------------------------------------------------------------------

 ------------------------------------
 carboxy.M062X_6-311pGd_opt_water_GD3
 ------------------------------------
 Symbolic Z-matrix:
 Charge = -1 Multiplicity = 1

 SCF Done:  E(RM062X) =  -267.906411596     A.U. after   12 cycles
 SCF Done:  E(RM062X) =  -267.914308898     A.U. after   12 cycles
 SCF Done:  E(RM062X) =  -267.915186523     A.U. after   11 cycles
 SCF Done:  E(RM062X) =  -267.915299888     A.U. after   10 cycles
 SCF Done:  E(RM062X) =  -267.915303452     A.U. after    8 cycles
 Optimization completed.
    -- Stationary point found.
 Normal termination of Gaussian 09 at Mon Nov 18 12:28:34 2019.
 Gaussian 09:  ES64L-G09RevE.01 30-Nov-2015

 ----------------------------------------------------------------------
 # M062X/6-311+G* SCF=Tight INT(grid=ultrafine) EmpiricalDispersion=GD3
  SCRF=(SMD,Solvent=h2o) Freq=Noraman maxdisk=671088640 geom=check gues
 s=read IOP(2/17=4)
 ----------------------------------------------------------------------

 ------------------------------------
 carboxy.M062X_6-311pGd_opt_water_GD3
 ------------------------------------
 Structure from the checkpoint file:  "carboxy.M062X_6-311pGd_opt_water_GD3.chk"
 Charge = -1 Multiplicity = 1

                         Standard orientation:
 ---------------------------------------------------------------------
 Center     Atomic      Atomic             Coordinates (Angstroms)
 Number     Number       Type             X           Y           Z
 ---------------------------------------------------------------------
      1          6           0        0.000000   -0.679567   -0.000000
      2          6           0       -0.692163    0.683925    0.000000
      3          6           0        0.237081    1.887249    0.000000
      4          8           0        1.257003   -0.728152   -0.000000
      5          8           0       -0.755462   -1.692073    0.000000
      6          1           0       -1.353508    0.705512    0.871737
      7          1           0       -1.353508    0.705512   -0.871737
      8          1           0        0.881082    1.892216    0.881883
      9          1           0       -0.336993    2.816710    0.000000
     10          1           0        0.881082    1.892216   -0.881883
 ---------------------------------------------------------------------

 SCF Done:  E(RM062X) =  -267.915303452     A.U. after    1 cycles

 The electronic state is 1-A'.
 Alpha  occ. eigenvalues --  -19.56992 -19.56610 -10.63028 -10.52159 -10.51215
 Alpha  occ. eigenvalues --   -1.15596  -1.05765  -0.85380  -0.71712  -0.58373
 Alpha  occ. eigenvalues --   -0.52617  -0.52450  -0.50219  -0.45815  -0.44156
 Alpha  occ. eigenvalues --   -0.41300  -0.39252  -0.33035  -0.32130  -0.31773
 Alpha virt. eigenvalues --    0.02708   0.04559   0.05210   0.05737   0.08025
 Alpha virt. eigenvalues --    0.08480   0.08806   0.09164   0.10007   0.10206
 Alpha virt. eigenvalues --    0.13102   0.14018   0.15114   0.21159   0.22402

 Mulliken charges:
               1
     1  C    0.261597
     2  C   -0.371059
     3  C   -0.939278
     4  O   -0.649768
     5  O   -0.662471
     6  H    0.281367
     7  H    0.281367
     8  H    0.265010
     9  H    0.268224
    10  H    0.265010
 Sum of Mulliken charges =  -1.00000

 Dipole moment (field-independent basis, Debye):
    X=             -2.1944    Y=              7.9824    Z=             -0.0000  Tot=              8.2785
 Quadrupole moment (field-independent basis, Debye-Ang):
   XX=            -41.5297   YY=            -45.6995   ZZ=            -31.4634
   XY=             -2.0498   XZ=              0.0000   YZ=             -0.0000

  Exact polarizability:  71.233   4.626  63.934   0.000  -0.000  48.562
 Approx polarizability:  58.084   3.839  49.555   0.000  -0.000  41.568

                      1                      2                      3
                     A"                     A"                     A'
 Frequencies --     35.9205               252.4844               278.0010
 Red. masses --      2.3472                 1.0852                 3.7936
 Frc consts  --      0.0018                 0.0408                 0.1727
 IR Inten    --      3.2108                 1.9076                 4.5716

                      4                      5                      6
                     A'                     A"                     A'
 Frequencies --    503.2419               577.9161               644.5979
 Red. masses --      5.4281                 1.9171                 4.7362
 Frc consts  --      0.8099                 0.3772                 1.1595
 IR Inten    --     20.5819                 7.9773                35.8767

                      7                      8                      9
                     A"                     A'                     A'
 Frequencies --    820.5090               877.0227              1024.9373
 Red. masses --      1.5108                 4.1357                 1.6319
 Frc consts  --      0.5993                 1.8742                 1.0101
 IR Inten    --     32.2822                52.2691                13.6826

                     10                     11                     12
                     A"                     A'                     A"
 Frequencies --   1107.9586              1110.5171              1297.2646
 Red. masses --      1.7819                 2.3257                 1.1650
 Frc consts  --      1.2888                 1.6899                 1.1551
 IR Inten    --      2.2321                20.9699                 0.5246

                     13                     14                     15
                     A'                     A'                     A'
 Frequencies --   1329.1403              1415.7020              1432.7506
 Red. masses --      1.8656                 1.4125                 2.9611
 Frc consts  --      1.9418                 1.6679                 3.5814
 IR Inten    --    141.0739                61.2952               317.7800

                     16                     17                     18
                     A'                     A"                     A'
 Frequencies --   1459.2827              1499.9798              1505.1003
 Red. masses --      1.2328                 1.0375                 1.0719
 Frc consts  --      1.5468                 1.3753                 1.4306
 IR Inten    --     78.7329                12.4138                52.9676

                     19                     20                     21
                     A'                     A'                     A'
 Frequencies --   1526.4707              3073.1044              3076.6348
 Red. masses --      7.5372                 1.0376                 1.0613
 Frc consts  --     10.3476                 5.7734                 5.9189
 IR Inten    --   1407.1640                49.3092                16.6947

                     22                     23                     24
                     A"                     A'                     A"
 Frequencies --   3109.0480              3140.7896              3146.3247
 Red. masses --      1.1014                 1.1025                 1.1036
 Frc consts  --      6.2725                 6.4078                 6.4369
 IR Inten    --      9.1344                49.5665                60.0498

 - Thermochemistry -
 -------------------
 Temperature   298.150 Kelvin.  Pressure   1.00000 Atm.
 Atom     1 has atomic number  6 and mass  12.00000

 Molecular mass:    73.02895 amu.
 Principal axes and moments of inertia in atomic units:
                           1         2         3
     Eigenvalues --   174.24756 453.89641 606.00801
           X            0.07829   0.99693   0.00000
           Y            0.99693  -0.07829   0.00000
           Z           -0.00000  -0.00000   1.00000
 This molecule is an asymmetric top.
 Rotational symmetry number  1.
 Rotational temperatures (Kelvin)      0.49707     0.19082     0.14293
 Rotational constants (GHZ):          10.35734     3.97611     2.97808
 Zero-point vibrational energy     204828.8 (Joules/Mol)
                                   48.95525 (Kcal/Mol)
 Warning -- explicit consideration of   5 degrees of freedom as
           vibrations may cause significant error
 Vibrational temperatures:     51.68   363.27   399.98   724.05   831.49
          (Kelvin)            927.43  1180.53  1261.84  1474.65  1594.10
                             1597.78  1866.47  1912.33  2036.88  2061.41
                             2099.58  2158.13  2165.50  2196.25  4421.51
                             4426.59  4473.22  4518.89  4526.85

 Zero-point correction=                           0.078015 (Hartree/Particle)
 Thermal correction to Energy=                    0.083443
 Thermal correction to Enthalpy=                  0.084387
 Thermal correction to Gibbs Free Energy=         0.048711
 Sum of electronic and zero-point Energies=           -267.837288
 Sum of electronic and thermal Energies=              -267.831861
 Sum of electronic and thermal Enthalpies=            -267.830916
 Sum of electronic and thermal Free Energies=         -267.866593

                     E (Thermal)             CV                S
                      KCal/Mol        Cal/Mol-Kelvin    Cal/Mol-Kelvin
 Total                   52.361             17.505             75.087
 Electronic               0.000              0.000              0.000
 Translational            0.889              2.981             38.781
 Rotational               0.889              2.981             25.375
 Vibrational             50.584             11.543             10.931
 Vibration     1          0.594              1.982              5.472
 Vibration     2          0.664              1.759              1.713
 Vibration     3          0.679              1.714              1.546
 Vibration     4          0.859              1.243              0.650
 Vibration     5          0.934              1.079              0.489

 Optimization completed.
    -- Stationary point found.
 Normal termination of Gaussian 09 at Mon Nov 18 12:29:22 2019.
