 Gaussian 16, Revision C.01,
 Gaussian 16:  ES64L-G16RevC.01  3-Jul-2019

 ---------------------------------------------------------------------
 # DSDPBEP86/AUG-cc-PVTZ SCF=Tight INT(grid=ultrafine) MaxDisk=60000MB
 ---------------------------------------------------------------------

 -----------------------------
 carboxy.DSDPBEP86_AUG-cc-PVTZ
 -----------------------------
 Symbolic Z-matrix:
 Charge = -1 Multiplicity = 1

                         Standard orientation:
 ---------------------------------------------------------------------
 Center     Atomic      Atomic             Coordinates (Angstroms)
 Number     Number       Type             X           Y           Z
 ---------------------------------------------------------------------
      1          6           0       -0.706074    0.069975   -0.000002
      2          6           0        0.620613   -0.757030   -0.000065
      3          6           0        1.892459    0.082369    0.000049
      4          8           0       -0.585320    1.312681   -0.000030
      5          8           0       -1.746492   -0.621255    0.000050
      6          1           0        0.589250   -1.418466   -0.873115
      7          1           0        0.589212   -1.418673    0.872825
      8          1           0        1.918595    0.736552   -0.873868
      9          1           0        2.796797   -0.538950   -0.000089
     10          1           0        1.918656    0.736242    0.874198
 ---------------------------------------------------------------------

 SCF Done:  E(RDSDPBEP86) =  -266.986877322     A.U. after   12 cycles
 E2(DSDPBEP86) =    -0.5065086888D+00 E(DSDPBEP86) =    -0.26749338601045D+03

 The electronic state is 1-A.
 Alpha  occ. eigenvalues --  -19.74041 -19.73617 -10.71035 -10.65099 -10.64022
 Alpha  occ. eigenvalues --   -1.04023  -0.94447  -0.76594  -0.61321  -0.43722
 Alpha  occ. eigenvalues --   -0.39283  -0.37657  -0.33988  -0.31126  -0.30377
 Alpha  occ. eigenvalues --   -0.28447  -0.25527  -0.14286  -0.14012  -0.13413
 Alpha virt. eigenvalues --    0.11055   0.12928   0.13126   0.13871   0.15253
 Alpha virt. eigenvalues --    0.18434   0.19398   0.20858   0.21033   0.21803
 Alpha virt. eigenvalues --    0.23284   0.23406   0.23556   0.25187   0.25549

 Mulliken charges:
               1
     1  C    0.422147
     2  C   -0.214884
     3  C   -0.833501
     4  O   -0.774154
     5  O   -0.799687
     6  H    0.207804
     7  H    0.207821
     8  H    0.269922
     9  H    0.244638
    10  H    0.269894
 Sum of Mulliken charges =  -1.00000

 Dipole moment (field-independent basis, Debye):
    X=              5.3788    Y=             -1.7479    Z=             -0.0001  Tot=              5.6557
 Quadrupole moment (field-independent basis, Debye-Ang):
   XX=            -47.3066   YY=            -41.5455   ZZ=            -32.2084
   XY=             -1.1160   XZ=              0.0002   YZ=              0.0002

 Normal termination of Gaussian 16 at Thu Sep 10 11:22:26 2020.
