 Gaussian 09, Revision E.01,

 ----------------------------------------------------------------------
 # M062X/6-311+G* SCF=Tight INT(grid=ultrafine) OPT IOP(2/17=4) Empiric
 alDispersion=GD3 maxdisk=2684354560
 ----------------------------------------------------------------------

 ----------------------------
 NM2CA.M062X_6-311pGd_opt_GD3
 ----------------------------
 Symbolic Z-matrix:
 Charge =  0 Multiplicity = 1

 SCF Done:  E(RM062X) =  -1268.12051212     A.U. after   16 cycles
 SCF Done:  E(RM062X) =  -1268.12051208     A.U. after    8 cycles
 SCF Done:  E(RM062X) =  -1268.12051214     A.U. after    8 cycles
 Optimization completed.
    -- Stationary point found.
 Normal termination of Gaussian 09 at Thu Nov 14 17:02:36 2019.
 Gaussian 09:  ES64L-G09RevE.01 30-Nov-2015

 ----------------------------------------------------------------------
 # M062X/6-311+G* SCF=Tight INT(grid=ultrafine) EmpiricalDispersion=GD3
  Freq=Noraman maxdisk=2684354560 geom=check guess=read IOP(2/17=4)
 ----------------------------------------------------------------------

 ----------------------------
 NM2CA.M062X_6-311pGd_opt_GD3
 ----------------------------
 Structure from the checkpoint file:  "NM2CA.M062X_6-311pGd_opt_GD3.chk"
 Charge =  0 Multiplicity = 1

                         Standard orientation:
 ---------------------------------------------------------------------
 Center     Atomic      Atomic             Coordinates (Angstroms)
 Number     Number       Type             X           Y           Z
 ---------------------------------------------------------------------
      1          6           0        0.510894   -0.952751   -0.013891
      2          7           0        1.900103   -1.087861   -0.019826
      3          6           0        2.841286   -0.084827   -0.005673
      4          8           0        2.622845    1.097420    0.006315
      5          8           0        4.062995   -0.639152   -0.007610
      6          6           0        5.160562    0.288851    0.004933
      7          6           0        6.442322   -0.515381    0.002094
      8          6           0        7.661199    0.403209    0.014100
      9          6           0       -0.139634    0.285414   -0.025189
     10          6           0       -1.526917    0.343048   -0.018522
     11          6           0       -2.295005   -0.827718    0.010568
     12          6           0       -1.635329   -2.052406    0.011787
     13          6           0       -0.253697   -2.119676   -0.000161
     14          1           0        2.273384   -2.025723   -0.023219
     15          1           0        5.077848    0.918673    0.893893
     16          1           0        5.084170    0.934995   -0.872831
     17          1           0        6.457785   -1.157833   -0.882478
     18          1           0        6.452016   -1.173182    0.875404
     19          1           0        7.675742    1.054962   -0.862761
     20          1           0        8.586181   -0.174540    0.012362
     21          1           0        7.669711    1.039982    0.901979
     22          1           0        0.438986    1.195872   -0.044829
     23          1           0        0.235210   -3.088367    0.005144
     24          6           0       -3.804923   -0.844213    0.004577
     25          6           0       -2.146762    1.726140   -0.002030
     26          1           0       -2.211261   -2.968380    0.030794
     27          9           0       -4.331326    0.064624    0.830141
     28          9           0       -4.271741   -2.041247    0.397109
     29          9           0       -4.308735   -0.623326   -1.216894
     30          9           0       -1.273523    2.657378   -0.404697
     31          9           0       -2.541966    2.073184    1.229140
     32          9           0       -3.207285    1.813197   -0.810341
 ---------------------------------------------------------------------

 SCF Done:  E(RM062X) =  -1268.12051214     A.U. after    1 cycles

 The electronic state is 1-A.
 Alpha  occ. eigenvalues --  -25.28201 -25.28030 -25.27910 -25.27892 -25.27606
 Alpha  occ. eigenvalues --  -25.27605 -19.68879 -19.62867 -14.81923 -10.81089
 Alpha  occ. eigenvalues --  -10.81015 -10.72481 -10.63479 -10.61088 -10.60405
 Alpha  occ. eigenvalues --  -10.59690 -10.58645 -10.58330 -10.57771 -10.55419
 Alpha  occ. eigenvalues --  -10.54319  -1.47757  -1.47308  -1.38291  -1.37949
 Alpha  occ. eigenvalues --   -1.37808  -1.37654  -1.26999  -1.17097  -1.09506
 Alpha  occ. eigenvalues --   -1.01028  -0.92578  -0.91099  -0.90216  -0.83851
 Alpha  occ. eigenvalues --   -0.82492  -0.80243  -0.76002  -0.75236  -0.71478
 Alpha  occ. eigenvalues --   -0.70298  -0.70002  -0.69995  -0.69591  -0.69345
 Alpha  occ. eigenvalues --   -0.68609  -0.67127  -0.64752  -0.61147  -0.60859
 Alpha  occ. eigenvalues --   -0.58600  -0.58328  -0.57974  -0.57636  -0.57337
 Alpha  occ. eigenvalues --   -0.56262  -0.55399  -0.55066  -0.54148  -0.53406
 Alpha  occ. eigenvalues --   -0.53211  -0.53013  -0.52345  -0.51515  -0.51429
 Alpha  occ. eigenvalues --   -0.51120  -0.50466  -0.49817  -0.47720  -0.47408
 Alpha  occ. eigenvalues --   -0.45939  -0.45002  -0.44602  -0.42568  -0.42321
 Alpha  occ. eigenvalues --   -0.41395  -0.39626  -0.38567  -0.35112  -0.31124
 Alpha virt. eigenvalues --   -0.03006  -0.01561  -0.00890   0.00910   0.01826
 Alpha virt. eigenvalues --    0.02264   0.02591   0.03316   0.04153   0.04275
 Alpha virt. eigenvalues --    0.04829   0.05002   0.05972   0.06240   0.06542

 Mulliken charges:
               1
     1  C   -1.082024
     2  N   -0.480881
     3  C    0.055205
     4  O   -0.275835
     5  O   -0.053758
     6  C   -0.286843
     7  C   -0.141113
     8  C   -1.025849
     9  C    0.295981
    10  C   -0.447533
    11  C   -0.898491
    12  C   -0.158839
    13  C   -0.090944
    14  H    0.403962
    15  H    0.269821
    16  H    0.270114
    17  H    0.259055
    18  H    0.258961
    19  H    0.260520
    20  H    0.274883
    21  H    0.260548
    22  H    0.344151
    23  H    0.242657
    24  C    0.880939
    25  C    0.966830
    26  H    0.288815
    27  F   -0.064014
    28  F   -0.111350
    29  F   -0.031779
    30  F   -0.098251
    31  F   -0.025058
    32  F   -0.059883
 Sum of Mulliken charges =  -0.00000

 Dipole moment (field-independent basis, Debye):
    X=              6.4492    Y=             -4.3359    Z=             -0.0291  Tot=              7.7713
 Quadrupole moment (field-independent basis, Debye-Ang):
   XX=           -113.5198   YY=           -116.5190   ZZ=           -121.9290
   XY=             -0.9969   XZ=             -0.0385   YZ=             -0.1096

  Exact polarizability: 217.569   4.780 150.605  -0.131  -0.042  99.841
 Approx polarizability: 214.153   1.593 198.051  -0.376  -0.230 132.270

                      1                      2                      3
                      A                      A                      A
 Frequencies --     19.5815                23.6029                53.3122
 Red. masses --      5.5317                 3.2193                 6.3342
 Frc consts  --      0.0012                 0.0011                 0.0106
 IR Inten    --      0.5720                 1.1137                 0.0687

                      4                      5                      6
                      A                      A                      A
 Frequencies --     56.9871                71.6132                75.1130
 Red. masses --      5.8869                 3.1147                 4.3185
 Frc consts  --      0.0113                 0.0094                 0.0144
 IR Inten    --      0.0492                 1.9518                 1.6426

                      7                      8                      9
                      A                      A                      A
 Frequencies --     92.8468               100.0284               131.6293
 Red. masses --     18.6615                 4.7383                 6.2754
 Frc consts  --      0.0948                 0.0279                 0.0641
 IR Inten    --      0.0360                 0.1011                 0.8810

                     10                     11                     12
                      A                      A                      A
 Frequencies --    140.5270               171.4384               176.0060
 Red. masses --      7.1310                13.9967                 3.5975
 Frc consts  --      0.0830                 0.2424                 0.0657
 IR Inten    --      0.3945                 0.4264                 2.7829

                     13                     14                     15
                      A                      A                      A
 Frequencies --    206.0864               233.4512               236.1731
 Red. masses --      8.0901                 5.8401                 1.3587
 Frc consts  --      0.2024                 0.1875                 0.0447
 IR Inten    --      0.2671                 4.0418                 0.3807

                     16                     17                     18
                      A                      A                      A
 Frequencies --    241.1419               262.9573               319.7662
 Red. masses --      4.0910                 8.2490                 7.6275
 Frc consts  --      0.1402                 0.3361                 0.4595
 IR Inten    --      0.2687                 0.5239                 0.8717

                     19                     20                     21
                      A                      A                      A
 Frequencies --    342.3699               353.0035               386.8462
 Red. masses --     15.0501                 4.8554                 7.7779
 Frc consts  --      1.0394                 0.3565                 0.6858
 IR Inten    --      0.2016                17.9166                 2.7579

                     22                     23                     24
                      A                      A                      A
 Frequencies --    397.8885               418.5031               464.6255
 Red. masses --      6.2045                 4.9490                 7.6213
 Frc consts  --      0.5787                 0.5107                 0.9694
 IR Inten    --     15.8896                 1.9824                 3.1375

                     25                     26                     27
                      A                      A                      A
 Frequencies --    482.3916               506.4594               541.3442
 Red. masses --      6.4118                 6.6392                10.1096
 Frc consts  --      0.8791                 1.0034                 1.7456
 IR Inten    --      0.6421                14.6279                 0.0872

                     28                     29                     30
                      A                      A                      A
 Frequencies --    551.7955               574.3466               608.3254
 Red. masses --      1.1472                15.0072                 5.1934
 Frc consts  --      0.2058                 2.9167                 1.1323
 IR Inten    --     71.4328                 0.3930                18.7907

                     31                     32                     33
                      A                      A                      A
 Frequencies --    622.1025               657.1411               663.6904
 Red. masses --      8.8004                 5.3952                 7.8729
 Frc consts  --      2.0067                 1.3727                 2.0432
 IR Inten    --      0.8261                 2.4870                12.2623

                     34                     35                     36
                      A                      A                      A
 Frequencies --    685.7967               765.0141               767.8668
 Red. masses --      9.3912                 1.1410                 4.9404
 Frc consts  --      2.6023                 0.3934                 1.7163
 IR Inten    --     13.1786                 5.5036                 1.5999

                     37                     38                     39
                      A                      A                      A
 Frequencies --    775.7845               779.6209               790.6310
 Red. masses --      9.4623                11.1120                 7.7988
 Frc consts  --      3.3553                 3.9793                 2.8723
 IR Inten    --      4.0493                 7.4225                17.7758

                     40                     41                     42
                      A                      A                      A
 Frequencies --    803.2704               855.6117               905.0264
 Red. masses --      9.2159                 1.4842                 1.1549
 Frc consts  --      3.5036                 0.6402                 0.5573
 IR Inten    --      1.7597                44.9265                 2.1764

                     43                     44                     45
                      A                      A                      A
 Frequencies --    929.3029               948.6801               959.2483
 Red. masses --      1.7968                 1.4026                 4.6490
 Frc consts  --      0.9142                 0.7438                 2.5204
 IR Inten    --      2.0723                20.2316                38.0657

                     46                     47                     48
                      A                      A                      A
 Frequencies --    987.6723              1026.1170              1052.6812
 Red. masses --      1.3367                 7.1993                 6.3132
 Frc consts  --      0.7682                 4.4662                 4.1219
 IR Inten    --      3.2106                 9.5426                61.9751

                     49                     50                     51
                      A                      A                      A
 Frequencies --   1075.3364              1124.1297              1136.5536
 Red. masses --      2.5485                 6.2811                 2.9876
 Frc consts  --      1.7363                 4.6765                 2.2738
 IR Inten    --      3.3767                57.8375               221.4208

                     52                     53                     54
                      A                      A                      A
 Frequencies --   1168.5676              1174.6128              1196.8352
 Red. masses --      2.3954                 2.5244                 1.6679
 Frc consts  --      1.9272                 2.0521                 1.4077
 IR Inten    --     11.7610                53.2439                 0.8989

                     55                     56                     57
                      A                      A                      A
 Frequencies --   1197.7152              1220.0624              1233.5953
 Red. masses --      9.3987                 2.4585                 9.4593
 Frc consts  --      7.9438                 2.1562                 8.4811
 IR Inten    --      7.8294               305.2476               518.9047

                     58                     59                     60
                      A                      A                      A
 Frequencies --   1245.6756              1262.6178              1290.3312
 Red. masses --      8.9343                 2.5418                 2.9167
 Frc consts  --      8.1681                 2.3875                 2.8612
 IR Inten    --    165.5318               725.7756               210.7336

                     61                     62                     63
                      A                      A                      A
 Frequencies --   1294.3261              1317.2100              1330.0810
 Red. masses --      1.1830                 2.2818                 3.0402
 Frc consts  --      1.1676                 2.3326                 3.1689
 IR Inten    --      0.7409               144.6640               335.9437

                     64                     65                     66
                      A                      A                      A
 Frequencies --   1339.4586              1349.3472              1351.7662
 Red. masses --      1.0679                 1.4620                 3.9618
 Frc consts  --      1.1288                 1.5684                 4.2653
 IR Inten    --      0.4432                58.2465               198.8255

                     67                     68                     69
                      A                      A                      A
 Frequencies --   1378.8816              1433.2983              1445.5804
 Red. masses --      4.6051                 1.2745                 1.5130
 Frc consts  --      5.1587                 1.5426                 1.8628
 IR Inten    --    268.4126                 4.4059                34.1553

                     70                     71                     72
                      A                      A                      A
 Frequencies --   1482.2098              1510.6124              1523.5301
 Red. masses --      4.7404                 1.0617                 1.0365
 Frc consts  --      6.1360                 1.4275                 1.4174
 IR Inten    --    251.4261                 1.3149                10.5632

                     73                     74                     75
                      A                      A                      A
 Frequencies --   1525.0822              1537.2445              1558.6675
 Red. masses --      1.0836                 1.1042                 2.2516
 Frc consts  --      1.4849                 1.5374                 3.2229
 IR Inten    --      1.0849                36.7757                99.2636

                     76                     77                     78
                      A                      A                      A
 Frequencies --   1598.6081              1666.0635              1696.2954
 Red. masses --      3.0333                 5.8469                 6.0962
 Frc consts  --      4.5673                 9.5623                10.3350
 IR Inten    --    458.4612               164.4207                69.8225

                     79                     80                     81
                      A                      A                      A
 Frequencies --   1854.9027              3071.7518              3079.4714
 Red. masses --     10.6092                 1.0383                 1.0595
 Frc consts  --     21.5068                 5.7725                 5.9196
 IR Inten    --    293.2360                17.3605                 7.6441

                     82                     83                     84
                      A                      A                      A
 Frequencies --   3091.4310              3112.4660              3134.9245
 Red. masses --      1.0575                 1.1044                 1.1061
 Frc consts  --      5.9543                 6.3037                 6.4049
 IR Inten    --     31.6370                 0.1183                 1.0030

                     85                     86                     87
                      A                      A                      A
 Frequencies --   3148.8998              3153.2922              3208.8931
 Red. masses --      1.1071                 1.1014                 1.0911
 Frc consts  --      6.4675                 6.4526                 6.6192
 IR Inten    --     55.0130                23.6590                 6.5478

                     88                     89                     90
                      A                      A                      A
 Frequencies --   3250.7803              3289.4241              3654.2711
 Red. masses --      1.0931                 1.0915                 1.0772
 Frc consts  --      6.8061                 6.9584                 8.4750
 IR Inten    --      0.3340                20.1631                50.0223

 - Thermochemistry -
 -------------------
 Temperature   298.150 Kelvin.  Pressure   1.00000 Atm.
 Atom     1 has atomic number  6 and mass  12.00000

 Molecular mass:   315.06940 amu.
 Principal axes and moments of inertia in atomic units:
                           1         2         3
     Eigenvalues --  2526.44839********************
           X            0.99999   0.00341   0.00009
           Y           -0.00341   0.99999  -0.00018
           Z           -0.00009   0.00018   1.00000
 This molecule is an asymmetric top.
 Rotational symmetry number  1.
 Warning -- assumption of classical behavior for rotation
           may cause significant error
 Rotational temperatures (Kelvin)      0.03428     0.00574     0.00511
 Rotational constants (GHZ):           0.71434     0.11967     0.10653
 Zero-point vibrational energy     603696.8 (Joules/Mol)
                                  144.28700 (Kcal/Mol)
 Warning -- explicit consideration of  30 degrees of freedom as
           vibrations may cause significant error
 Vibrational temperatures:     28.17    33.96    76.70    81.99   103.04
          (Kelvin)            108.07   133.59   143.92   189.38   202.19
                              246.66   253.23   296.51   335.88   339.80
                              346.95   378.34   460.07   492.59   507.89
                              556.58   572.47   602.13   668.49   694.05
                              728.68   778.87   793.91   826.36   875.24
                              895.07   945.48   954.90   986.71  1100.68
                             1104.79  1116.18  1121.70  1137.54  1155.73
                             1231.03  1302.13  1337.06  1364.94  1380.14
                             1421.04  1476.35  1514.57  1547.17  1617.37
                             1635.25  1681.31  1690.00  1721.98  1723.24
                             1755.40  1774.87  1792.25  1816.62  1856.50
                             1862.24  1895.17  1913.69  1927.18  1941.41
                             1944.89  1983.90  2062.19  2079.87  2132.57
                             2173.43  2192.02  2194.25  2211.75  2242.57
                             2300.04  2397.09  2440.59  2668.79  4419.56
                             4430.67  4447.87  4478.14  4510.45  4530.56
                             4536.88  4616.88  4677.14  4732.74  5257.67

 Zero-point correction=                           0.229936 (Hartree/Particle)
 Thermal correction to Energy=                    0.249529
 Thermal correction to Enthalpy=                  0.250473
 Thermal correction to Gibbs Free Energy=         0.179078
 Sum of electronic and zero-point Energies=          -1267.890576
 Sum of electronic and thermal Energies=             -1267.870983
 Sum of electronic and thermal Enthalpies=           -1267.870039
 Sum of electronic and thermal Free Energies=        -1267.941434

                     E (Thermal)             CV                S
                      KCal/Mol        Cal/Mol-Kelvin    Cal/Mol-Kelvin
 Total                  156.582             71.096            150.264
 Electronic               0.000              0.000              0.000
 Translational            0.889              2.981             43.139
 Rotational               0.889              2.981             34.822
 Vibrational            154.805             65.135             72.303
 Vibration     1          0.593              1.986              6.676
 Vibration     2          0.593              1.985              6.305
 Vibration     3          0.596              1.976              4.691
 Vibration     4          0.596              1.975              4.559
 Vibration     5          0.598              1.968              4.109
 Vibration     6          0.599              1.966              4.015
 Vibration     7          0.602              1.954              3.599
 Vibration     8          0.604              1.949              3.454
 Vibration     9          0.612              1.922              2.922
 Vibration    10          0.615              1.913              2.797
 Vibration    11          0.626              1.878              2.420
 Vibration    12          0.628              1.872              2.370
 Vibration    13          0.641              1.831              2.078
 Vibration    14          0.654              1.790              1.852
 Vibration    15          0.655              1.785              1.832
 Vibration    16          0.658              1.777              1.794
 Vibration    17          0.670              1.741              1.642
 Vibration    18          0.706              1.636              1.311
 Vibration    19          0.722              1.591              1.201
 Vibration    20          0.729              1.569              1.153
 Vibration    21          0.755              1.498              1.012
 Vibration    22          0.764              1.475              0.970
 Vibration    23          0.781              1.430              0.897
 Vibration    24          0.822              1.329              0.753
 Vibration    25          0.839              1.289              0.704
 Vibration    26          0.862              1.236              0.642
 Vibration    27          0.896              1.159              0.562
 Vibration    28          0.907              1.136              0.540
 Vibration    29          0.931              1.087              0.496
 Vibration    30          0.967              1.014              0.436

 Optimization completed.
    -- Stationary point found.
 Normal termination of Gaussian 09 at Thu Nov 14 17:49:01 2019.
