 Q-Chem 5.0, Q-Chem, Inc., Pleasanton, CA (2017)
 Q-Chem 5.0.0 for Intel X86 EM64T Linux

User input:
--------------------------------------------------------------
$molecule
  0 1
    C     -5.8588072686    1.2111492307    0.1765981364
    N     -4.5783552515    0.6613963421    0.0965637384
    C     -3.3772640731    1.3312596646    0.0688840707
    O     -3.2251605941    2.5234746613    0.1014129193
    O     -2.3834248538    0.4328324766   -0.0015628558
    C     -1.0564220882    0.9838422492   -0.0396510138
    C     -0.0814529449   -0.1708444406   -0.1160746397
    C      1.3580869879    0.3344326272   -0.1611529455
    C     -6.1019413123    2.5881754102    0.2090307151
    C     -7.4040772143    3.0635195247    0.2891005306
    C     -8.4893914329    2.1803809261    0.3495706037
    C     -8.2339387569    0.8136544470    0.3066952856
    C     -6.9403606759    0.3309673082    0.2215756196
    H     -4.5084338831   -0.3451489540    0.0663478128
    H     -0.9011950882    1.5882182270    0.8572329536
    H     -0.9746384080    1.6429924946   -0.9071998292
    H     -0.3042977462   -0.7669646020   -1.0051377612
    H     -0.2304552435   -0.8207738729    0.7504451019
    H      1.5281416988    0.9713349765   -1.0325394672
    H      2.0624854568   -0.4963533344   -0.2159735193
    H      1.6021751227    0.9177976369    0.7299077194
    H     -5.2755772973    3.2805548985    0.1659665702
    H     -6.7693793068   -0.7402053567    0.1937269816
    C     -9.9313505744    2.6225811931    0.4228828754
    C     -7.5726345193    4.5686610814    0.3487813804
    H     -9.0594515796    0.1152207494    0.3489440029
    F    -10.1165013281    3.6287527417    1.2819388412
    F    -10.7206302911    1.6146152223    0.8302329734
    F    -10.4019397942    3.0141985411   -0.7686665911
    F     -6.4779323569    5.2004330284   -0.0921049858
    F     -7.7843419063    4.9904186235    1.6016609346
    F     -8.5938634760    4.9919462782   -0.4019361584

$end

$rem

    JOBTYPE               sp
    METHOD                CCSD(T)
    BASIS                 6-31+G*
    CC_BACKEND            XM

    MEM_TOTAL             60000
$end
--------------------------------------------------------------

             Standard Nuclear Orientation (Angstroms)
    I     Atom           X                Y                Z
 ----------------------------------------------------------------
    1      C      -0.5108943627    -0.9527509450     0.0138911125
    2      N      -1.9001031551    -1.0878613509     0.0198258265
    3      C      -2.8412863416    -0.0848274705     0.0056731657
    4      O      -2.6228449255     1.0974203181    -0.0063146166
    5      O      -4.0629947684    -0.6391516941     0.0076097382
    6      C      -5.1605617619     0.2888505592    -0.0049333824
    7      C      -6.4423224192    -0.5153809437    -0.0020943973
    8      C      -7.6611992402     0.4032089301    -0.0140996462
    9      C       0.1396337598     0.2854140902     0.0251889815
   10      C       1.5269170771     0.3430479545     0.0185222742
   11      C       2.2950049646    -0.8277176614    -0.0105678781
   12      C       1.6353292622    -2.0524062397    -0.0117865492
   13      C       0.2536966818    -2.1196755254     0.0001607946
   14      H      -2.2733842682    -2.0257233521     0.0232185287
   15      H      -5.0778477976     0.9186732382    -0.8938925424
   16      H      -5.0841698525     0.9349954034     0.8728306406
   17      H      -6.4577849719    -1.1578328448     0.8824782399
   18      H      -6.4520156674    -1.1731822458    -0.8754041376
   19      H      -7.6757424842     1.0549620652     0.8627606746
   20      H      -8.5861809896    -0.1745397653    -0.0123616902
   21      H      -7.6697113336     1.0399824054    -0.9019791122
   22      H      -0.4389864535     1.1958723674     0.0448291453
   23      H      -0.2352102126    -3.0883668884    -0.0051444188
   24      C       3.8049234895    -0.8442128278    -0.0045771766
   25      C       2.1467619281     1.7261404494     0.0020302823
   26      H       2.2112611849    -2.9683795680    -0.0307940955
   27      F       4.3313264675     0.0646236775    -0.8301407724
   28      F       4.2717409292    -2.0412474717    -0.3971093550
   29      F       4.3087351967    -0.6233255720     1.2168936892
   30      F       1.2735228970     2.6573776489     0.4046967426
   31      F       2.5419662033     2.0731835837    -1.2291404057
   32      F       3.2072854461     1.8131967371     0.8103413818
 ----------------------------------------------------------------

   16   -1261.7272050272      3.85E-09 Convergence criterion met
 Total energy in the final basis set = -1261.7272050272
 CCSD total energy           = -1264.90399241
 CCSD(T) total energy       = -1265.01734041

                    Orbital Energies (a.u.)
 --------------------------------------------------------------

 Alpha MOs
 -- Occupied --
-26.356 -26.354 -26.353 -26.353 -26.350 -26.349 -20.636 -20.572
-15.641 -11.525 -11.525 -11.440 -11.334 -11.306 -11.301 -11.290
-11.284 -11.276 -11.270 -11.245 -11.235  -1.741  -1.736  -1.643
 -1.639  -1.638  -1.636  -1.499  -1.392  -1.297  -1.203  -1.100
 -1.087  -1.076  -0.996  -0.977  -0.954  -0.900  -0.892  -0.846
 -0.834  -0.831  -0.828  -0.824  -0.820  -0.815  -0.793  -0.767
 -0.727  -0.717  -0.715  -0.715  -0.710  -0.709  -0.688  -0.681
 -0.667  -0.666  -0.659  -0.651  -0.648  -0.647  -0.647  -0.646
 -0.629  -0.618  -0.602  -0.592  -0.569  -0.557  -0.553  -0.542
 -0.533  -0.508  -0.506  -0.484  -0.482  -0.479  -0.383  -0.347

          Ground-State Mulliken Net Atomic Charges

     Atom                 Charge (a.u.)
  ----------------------------------------
      1 C                    -0.386258
      2 N                    -0.930192
      3 C                     0.733628
      4 O                    -0.584338
      5 O                    -0.475770
      6 C                     0.078007
      7 C                    -0.282654
      8 C                    -0.688395
      9 C                     0.234744
     10 C                    -0.741839
     11 C                    -0.871153
     12 C                    -0.145416
     13 C                    -0.388914
     14 H                     0.500062
     15 H                     0.213157
     16 H                     0.213239
     17 H                     0.204425
     18 H                     0.204385
     19 H                     0.197025
     20 H                     0.204740
     21 H                     0.197021
     22 H                     0.353768
     23 H                     0.243231
     24 C                     1.994760
     25 C                     1.954237
     26 H                     0.282209
     27 F                    -0.380086
     28 F                    -0.426501
     29 F                    -0.356862
     30 F                    -0.422675
     31 F                    -0.351346
     32 F                    -0.376237
  ----------------------------------------
  Sum of atomic charges =     0.000000

                    Cartesian Multipole Moments
 -----------------------------------------------------------------
    Charge (ESU x 10^10)
                 0.0000
    Dipole Moment (Debye)
         X      -6.4914      Y      -4.5307      Z       0.0310
       Tot       7.9162
    Quadrupole Moments (Debye-Ang)
        XX    -114.8444     XY       1.0411     YY    -117.2809
        XZ      -0.0444     YZ       0.1334     ZZ    -122.3027

 Total job time:  132954.00s(wall), 861769.52s(cpu)
        *  Thank you very much for using Q-Chem.  Have a nice day.  *
