 Gaussian 09, Revision E.01,

 ----------------------------------------------------------------------
 # M062X/6-311+G* SCF=Tight INT(grid=ultrafine) OPT IOP(2/17=4) Empiric
 alDispersion=GD3 SCRF=(SMD,Solvent=h2o) maxdisk=2684354560
 ----------------------------------------------------------------------

 -------------------------------------
 NM2CA_c2.M062X_6-311pGd_opt_water_GD3
 -------------------------------------
 Symbolic Z-matrix:
 Charge =  0 Multiplicity = 1

 SCF Done:  E(RM062X) =  -1268.13016163     A.U. after   15 cycles
 Optimization completed.
    -- Stationary point found.
 Normal termination of Gaussian 09 at Thu Nov 14 16:49:13 2019.
 Gaussian 09:  ES64L-G09RevE.01 30-Nov-2015

 ----------------------------------------------------------------------
 # M062X/6-311+G* SCF=Tight INT(grid=ultrafine) SCRF=(SMD,Solvent=h2o)
 EmpiricalDispersion=GD3 Freq=Noraman maxdisk=2684354560 geom=check gue
 ss=read IOP(2/17=4)
 ----------------------------------------------------------------------

 -------------------------------------
 NM2CA_c2.M062X_6-311pGd_opt_water_GD3
 -------------------------------------
 Structure from the checkpoint file:  "NM2CA_c2.M062X_6-311pGd_opt_water_GD3.chk"
 Charge =  0 Multiplicity = 1

                         Standard orientation:
 ---------------------------------------------------------------------
 Center     Atomic      Atomic             Coordinates (Angstroms)
 Number     Number       Type             X           Y           Z
 ---------------------------------------------------------------------
      1          6           0       -0.588951   -0.091258   -0.128921
      2          7           0       -1.913122    0.344906   -0.180147
      3          6           0       -3.040127   -0.411332   -0.027006
      4          8           0       -3.074830   -1.612663    0.144282
      5          8           0       -4.121398    0.372031   -0.090523
      6          6           0       -5.395241   -0.289604    0.068728
      7          6           0       -6.473206    0.765998   -0.024535
      8          6           0       -7.852104    0.133899    0.131343
      9          6           0        0.395941    0.903299   -0.062680
     10          6           0        1.737748    0.574328   -0.014706
     11          6           0        2.132035   -0.773426   -0.042294
     12          6           0        1.148355   -1.750870   -0.108502
     13          6           0       -0.202083   -1.429313   -0.155681
     14          1           0       -2.061704    1.344481   -0.253349
     15          1           0       -5.407498   -0.790920    1.038633
     16          1           0       -5.498008   -1.039154   -0.718645
     17          1           0       -6.395322    1.273491   -0.989869
     18          1           0       -6.309267    1.515635    0.754360
     19          1           0       -8.035918   -0.607634   -0.650168
     20          1           0       -8.636080    0.890016    0.065821
     21          1           0       -7.949337   -0.366274    1.098202
     22          1           0        0.089786    1.942534   -0.043258
     23          1           0       -0.933252   -2.219648   -0.218829
     24          6           0        3.566533   -1.219661    0.032133
     25          6           0        2.723357    1.716823    0.028794
     26          1           0        1.430915   -2.795492   -0.131538
     27          9           0        4.380348   -0.485117   -0.743998
     28          9           0        3.711976   -2.492287   -0.362077
     29          9           0        4.063146   -1.155454    1.281452
     30          9           0        2.143930    2.862453    0.409508
     31          9           0        3.277288    1.952771   -1.172365
     32          9           0        3.729293    1.494343    0.887431
 ---------------------------------------------------------------------

 SCF Done:  E(RM062X) =  -1268.13016163     A.U. after    2 cycles

 The electronic state is 1-A.
 Alpha  occ. eigenvalues --  -25.28989 -25.28921 -25.28773 -25.28690 -25.28636
 Alpha  occ. eigenvalues --  -25.28348 -19.67738 -19.62245 -14.80245 -10.81802
 Alpha  occ. eigenvalues --  -10.81540 -10.71828 -10.62199 -10.59981 -10.59080
 Alpha  occ. eigenvalues --  -10.59065 -10.57392 -10.57271 -10.56294 -10.53097
 Alpha  occ. eigenvalues --  -10.51919  -1.48535  -1.47989  -1.39089  -1.38722
 Alpha  occ. eigenvalues --   -1.38580  -1.38297  -1.25836  -1.15924  -1.08054
 Alpha  occ. eigenvalues --   -1.00311  -0.91392  -0.90509  -0.88826  -0.83846
 Alpha  occ. eigenvalues --   -0.81875  -0.79360  -0.75523  -0.74495  -0.71206
 Alpha  occ. eigenvalues --   -0.70882  -0.70731  -0.70305  -0.70096  -0.68748
 Alpha  occ. eigenvalues --   -0.67342  -0.64776  -0.64513  -0.60100  -0.59394
 Alpha  occ. eigenvalues --   -0.59276  -0.59204  -0.58448  -0.58318  -0.57316
 Alpha  occ. eigenvalues --   -0.55846  -0.55135  -0.54911  -0.53896  -0.53700
 Alpha  occ. eigenvalues --   -0.53426  -0.52790  -0.52462  -0.52218  -0.51099
 Alpha  occ. eigenvalues --   -0.50617  -0.49646  -0.48881  -0.46314  -0.45935
 Alpha  occ. eigenvalues --   -0.45193  -0.43996  -0.42727  -0.40888  -0.40160
 Alpha  occ. eigenvalues --   -0.40021  -0.38221  -0.38102  -0.34168  -0.30105
 Alpha virt. eigenvalues --   -0.02243  -0.00743   0.01240   0.02367   0.02691
 Alpha virt. eigenvalues --    0.03226   0.03728   0.03905   0.04552   0.04734
 Alpha virt. eigenvalues --    0.05279   0.05483   0.06412   0.06678   0.06890

 Mulliken charges:
               1
     1  C   -0.658321
     2  N   -0.484381
     3  C    0.064736
     4  O   -0.417766
     5  O   -0.082350
     6  C   -0.363775
     7  C   -0.155681
     8  C   -1.066639
     9  C   -0.330518
    10  C   -0.654608
    11  C   -0.581372
    12  C   -0.155396
    13  C    0.138332
    14  H    0.481377
    15  H    0.289934
    16  H    0.290783
    17  H    0.271163
    18  H    0.271127
    19  H    0.272234
    20  H    0.284059
    21  H    0.272643
    22  H    0.324883
    23  H    0.319846
    24  C    0.775513
    25  C    1.098554
    26  H    0.322689
    27  F   -0.092187
    28  F   -0.125600
    29  F   -0.058931
    30  F   -0.118774
    31  F   -0.049135
    32  F   -0.082438
 Sum of Mulliken charges =  -0.00000

 Dipole moment (field-independent basis, Debye):
    X=             -7.8502    Y=              1.9549    Z=             -0.6208  Tot=              8.1137
 Quadrupole moment (field-independent basis, Debye-Ang):
   XX=           -120.6207   YY=           -121.0919   ZZ=           -122.1949
   XY=            -10.2927   XZ=              0.2436   YZ=              1.0989

  Exact polarizability: 271.043  -1.250 218.376   0.929  -1.232 144.663
 Approx polarizability: 217.023  -1.807 196.429   1.317  -1.110 132.883

                      1                      2                      3
                      A                      A                      A
 Frequencies --     22.0061                31.5407                54.3523
 Red. masses --      5.4861                 4.1709                 5.2509
 Frc consts  --      0.0016                 0.0024                 0.0091
 IR Inten    --      1.7769                 5.2965                 0.2634

                      4                      5                      6
                      A                      A                      A
 Frequencies --     60.1782                71.6710                89.0659
 Red. masses --      6.6226                 6.2032                 2.1734
 Frc consts  --      0.0141                 0.0188                 0.0102
 IR Inten    --      0.2297                 0.6344                 5.6210

                      7                      8                      9
                      A                      A                      A
 Frequencies --     92.9614               101.2195               138.2168
 Red. masses --     18.6158                 4.9324                 6.9845
 Frc consts  --      0.0948                 0.0298                 0.0786
 IR Inten    --      0.1176                 1.2968                 3.1107

                     10                     11                     12
                      A                      A                      A
 Frequencies --    145.1788               164.3133               172.0186
 Red. masses --      6.1741                11.6130                 3.5585
 Frc consts  --      0.0767                 0.1847                 0.0620
 IR Inten    --      4.1425                 0.2576                 7.0970

                     13                     14                     15
                      A                      A                      A
 Frequencies --    199.9665               233.0238               236.8691
 Red. masses --      8.5133                 5.3584                 1.2207
 Frc consts  --      0.2006                 0.1714                 0.0404
 IR Inten    --      0.1641                 2.7806                 0.3666

                     16                     17                     18
                      A                      A                      A
 Frequencies --    246.3577               256.8798               320.4682
 Red. masses --      6.1185                14.1234                 7.5510
 Frc consts  --      0.2188                 0.5491                 0.4569
 IR Inten    --      0.8684                 5.6118                 0.1545

                     19                     20                     21
                      A                      A                      A
 Frequencies --    339.9704               347.7694               356.9614
 Red. masses --     13.9538                 5.3666                 5.7675
 Frc consts  --      0.9502                 0.3824                 0.4330
 IR Inten    --      1.0145                11.6573                17.8374

                     22                     23                     24
                      A                      A                      A
 Frequencies --    422.5886               425.9734               472.3070
 Red. masses --      6.0546                 6.3491                 7.5857
 Frc consts  --      0.6370                 0.6788                 0.9970
 IR Inten    --     20.8473                13.8395                 4.6872

                     25                     26                     27
                      A                      A                      A
 Frequencies --    483.7480               505.1107               539.0562
 Red. masses --      6.0055                 6.4547                10.3248
 Frc consts  --      0.8280                 0.9703                 1.7677
 IR Inten    --      3.1329                30.4767                 9.2024

                     28                     29                     30
                      A                      A                      A
 Frequencies --    574.3367               580.1288               605.3324
 Red. masses --     12.6493                 1.1392                 5.3001
 Frc consts  --      2.4584                 0.2259                 1.1443
 IR Inten    --      5.2589               193.3480                20.9684

                     31                     32                     33
                      A                      A                      A
 Frequencies --    624.3018               654.9283               666.3093
 Red. masses --      8.8369                 5.9906                 7.5708
 Frc consts  --      2.0293                 1.5139                 1.9804
 IR Inten    --      1.0236                 0.9182                 9.0803

                     34                     35                     36
                      A                      A                      A
 Frequencies --    674.7210               760.4043               763.2944
 Red. masses --      9.0995                 5.4976                 7.1962
 Frc consts  --      2.4407                 1.8729                 2.4702
 IR Inten    --     18.7361                 0.7577                14.0422

                     37                     38                     39
                      A                      A                      A
 Frequencies --    766.8895               781.4942               790.1517
 Red. masses --      1.1322                11.2116                 7.2151
 Frc consts  --      0.3923                 4.0343                 2.6541
 IR Inten    --     18.2419                 4.9762                31.4871

                     40                     41                     42
                      A                      A                      A
 Frequencies --    811.8102               865.3331               907.8196
 Red. masses --      8.4955                 1.4559                 1.1470
 Frc consts  --      3.2988                 0.6423                 0.5569
 IR Inten    --     15.7926                81.8284                 4.4163

                     43                     44                     45
                      A                      A                      A
 Frequencies --    919.9052               924.1302               944.5335
 Red. masses --      2.2350                 1.5920                 2.6601
 Frc consts  --      1.1143                 0.8010                 1.3983
 IR Inten    --     40.5094                48.4752                43.9821

                     46                     47                     48
                      A                      A                      A
 Frequencies --   1003.4986              1015.2597              1046.4203
 Red. masses --      1.3587                 7.6032                 6.9224
 Frc consts  --      0.8061                 4.6174                 4.4660
 IR Inten    --      5.4146                35.3513               110.2056

                     49                     50                     51
                      A                      A                      A
 Frequencies --   1075.1139              1111.4858              1128.6006
 Red. masses --      2.4296                 8.0560                 3.5921
 Frc consts  --      1.6546                 5.8638                 2.6957
 IR Inten    --     16.3144                60.6001               425.5637

                     52                     53                     54
                      A                      A                      A
 Frequencies --   1143.7547              1155.3832              1159.6872
 Red. masses --     10.4972                 4.0663                 6.4154
 Frc consts  --      8.0908                 3.1982                 5.0835
 IR Inten    --    125.4973               458.1478               587.3941

                     55                     56                     57
                      A                      A                      A
 Frequencies --   1165.8008              1191.3560              1196.4782
 Red. masses --      2.4949                 1.6533                 1.8926
 Frc consts  --      1.9978                 1.3826                 1.5963
 IR Inten    --     87.3185                 1.3790               326.9821

                     58                     59                     60
                      A                      A                      A
 Frequencies --   1198.5154              1253.3311              1284.8101
 Red. masses --      8.8305                 2.7283                 3.3624
 Frc consts  --      7.4734                 2.5251                 3.2702
 IR Inten    --    604.0878              1197.6752               212.3771

                     61                     62                     63
                      A                      A                      A
 Frequencies --   1289.6930              1326.9560              1338.3445
 Red. masses --      1.1849                 2.5167                 1.0665
 Frc consts  --      1.1612                 2.6109                 1.1255
 IR Inten    --      2.6046               242.8359                 1.8101

                     64                     65                     66
                      A                      A                      A
 Frequencies --   1344.5741              1344.9293              1350.7661
 Red. masses --      2.1788                 1.9444                 3.0629
 Frc consts  --      2.3208                 2.0722                 3.2926
 IR Inten    --    377.2668                44.1943                56.1972

                     67                     68                     69
                      A                      A                      A
 Frequencies --   1374.0779              1418.4428              1441.2932
 Red. masses --      3.1060                 1.2744                 1.6403
 Frc consts  --      3.4552                 1.5107                 2.0076
 IR Inten    --    615.4989                 8.3414                22.3187

                     70                     71                     72
                      A                      A                      A
 Frequencies --   1461.1195              1485.0351              1501.0054
 Red. masses --      2.9022                 1.0635                 1.0375
 Frc consts  --      3.6505                 1.3818                 1.3772
 IR Inten    --     42.1743                 1.1836                13.7800

                     73                     74                     75
                      A                      A                      A
 Frequencies --   1508.0954              1521.3099              1577.6709
 Red. masses --      1.0926                 1.1016                 2.9052
 Frc consts  --      1.4641                 1.5022                 4.2606
 IR Inten    --      1.3698                34.9679                90.5641

                     76                     77                     78
                      A                      A                      A
 Frequencies --   1581.5409              1666.1918              1687.2559
 Red. masses --      2.5276                 4.8464                 6.4033
 Frc consts  --      3.7250                 7.9272                10.7403
 IR Inten    --   1029.9595                 5.2230               154.9142

                     79                     80                     81
                      A                      A                      A
 Frequencies --   1748.1298              3070.3342              3080.2962
 Red. masses --      9.8182                 1.0370                 1.0603
 Frc consts  --     17.6779                 5.7595                 5.9273
 IR Inten    --    826.2809                31.1488                26.3109

                     82                     83                     84
                      A                      A                      A
 Frequencies --   3098.2475              3116.0753              3138.7296
 Red. masses --      1.0570                 1.1043                 1.1048
 Frc consts  --      5.9779                 6.3175                 6.4129
 IR Inten    --     47.7792                 1.3899                36.6137

                     85                     86                     87
                      A                      A                      A
 Frequencies --   3148.6892              3155.7897              3241.5981
 Red. masses --      1.1024                 1.1103                 1.0924
 Frc consts  --      6.4395                 6.5147                 6.7634
 IR Inten    --     40.9621                79.4848                 3.6601

                     88                     89                     90
                      A                      A                      A
 Frequencies --   3252.7219              3289.6035              3615.6122
 Red. masses --      1.0918                 1.0940                 1.0784
 Frc consts  --      6.8059                 6.9752                 8.3062
 IR Inten    --      0.0222                 8.2410               175.2434

 - Thermochemistry -
 -------------------
 Temperature   298.150 Kelvin.  Pressure   1.00000 Atm.
 Atom     1 has atomic number  6 and mass  12.00000

 Molecular mass:   315.06940 amu.
 Principal axes and moments of inertia in atomic units:
                           1         2         3
     Eigenvalues --  2608.28580********************
           X            0.99999  -0.00359  -0.00105
           Y            0.00359   0.99999   0.00058
           Z            0.00105  -0.00058   1.00000
 This molecule is an asymmetric top.
 Rotational symmetry number  1.
 Warning -- assumption of classical behavior for rotation
           may cause significant error
 Rotational temperatures (Kelvin)      0.03321     0.00544     0.00485
 Rotational constants (GHZ):           0.69193     0.11333     0.10109
 Zero-point vibrational energy     600819.8 (Joules/Mol)
                                  143.59937 (Kcal/Mol)
 Warning -- explicit consideration of  30 degrees of freedom as
           vibrations may cause significant error
 Vibrational temperatures:     31.66    45.38    78.20    86.58   103.12
          (Kelvin)            128.15   133.75   145.63   198.86   208.88
                              236.41   247.50   287.71   335.27   340.80
                              354.45   369.59   461.08   489.14   500.36
                              513.59   608.01   612.88   679.54   696.00
                              726.74   775.58   826.34   834.67   870.94
                              898.23   942.29   958.67   970.77  1094.05
                             1098.21  1103.38  1124.39  1136.85  1168.01
                             1245.02  1306.15  1323.54  1329.62  1358.97
                             1443.81  1460.73  1505.56  1546.85  1599.18
                             1623.80  1645.61  1662.34  1668.53  1677.33
                             1714.09  1721.46  1724.39  1803.26  1848.55
                             1855.58  1909.19  1925.58  1934.54  1935.05
                             1943.45  1976.99  2040.82  2073.70  2102.22
                             2136.63  2159.61  2169.81  2188.82  2269.91
                             2275.48  2397.28  2427.58  2515.17  4417.52
                             4431.85  4457.68  4483.33  4515.93  4530.26
                             4540.47  4663.93  4679.94  4733.00  5202.05

 Zero-point correction=                           0.228840 (Hartree/Particle)
 Thermal correction to Energy=                    0.248402
 Thermal correction to Enthalpy=                  0.249346
 Thermal correction to Gibbs Free Energy=         0.178469
 Sum of electronic and zero-point Energies=          -1267.901321
 Sum of electronic and thermal Energies=             -1267.881760
 Sum of electronic and thermal Enthalpies=           -1267.880815
 Sum of electronic and thermal Free Energies=        -1267.951692

                     E (Thermal)             CV                S
                      KCal/Mol        Cal/Mol-Kelvin    Cal/Mol-Kelvin
 Total                  155.875             71.324            149.173
 Electronic               0.000              0.000              0.000
 Translational            0.889              2.981             43.139
 Rotational               0.889              2.981             34.960
 Vibrational            154.097             65.362             71.074
 Vibration     1          0.593              1.985              6.444
 Vibration     2          0.594              1.983              5.730
 Vibration     3          0.596              1.976              4.652
 Vibration     4          0.597              1.973              4.451
 Vibration     5          0.598              1.968              4.107
 Vibration     6          0.602              1.957              3.680
 Vibration     7          0.602              1.954              3.597
 Vibration     8          0.604              1.948              3.431
 Vibration     9          0.614              1.915              2.828
 Vibration    10          0.617              1.908              2.734
 Vibration    11          0.623              1.886              2.500
 Vibration    12          0.626              1.877              2.413
 Vibration    13          0.638              1.840              2.133
 Vibration    14          0.654              1.790              1.856
 Vibration    15          0.656              1.784              1.826
 Vibration    16          0.661              1.769              1.756
 Vibration    17          0.666              1.751              1.683
 Vibration    18          0.706              1.634              1.308
 Vibration    19          0.720              1.596              1.212
 Vibration    20          0.725              1.580              1.176
 Vibration    21          0.732              1.561              1.135
 Vibration    22          0.785              1.421              0.883
 Vibration    23          0.788              1.414              0.872
 Vibration    24          0.829              1.311              0.731
 Vibration    25          0.840              1.286              0.700
 Vibration    26          0.860              1.239              0.645
 Vibration    27          0.894              1.164              0.567
 Vibration    28          0.931              1.087              0.496
 Vibration    29          0.937              1.074              0.485
 Vibration    30          0.964              1.021              0.441

 Optimization completed.
    -- Stationary point found.
 Normal termination of Gaussian 09 at Thu Nov 14 17:37:19 2019.
