 Gaussian 09, Revision E.01,

 ----------------------------------------------------------------------
 # M062X/6-311+G* SCF=Tight INT(grid=ultrafine) OPT IOP(2/17=4) Empiric
 alDispersion=GD3 SCRF=(SMD,Solvent=n-Pentadecane) maxdisk=2684354560
 ----------------------------------------------------------------------

 -------------------------------------------
 NM2CA_c2.M062X_6-311pGd_opt_Pentadecane_GD3
 -------------------------------------------
 Symbolic Z-matrix:
 Charge =  0 Multiplicity = 1

 SCF Done:  E(RM062X) =  -1268.13173420     A.U. after   16 cycles
 Optimization completed.
    -- Stationary point found.
 Normal termination of Gaussian 09 at Thu Nov 14 15:49:51 2019.
 Gaussian 09:  ES64L-G09RevE.01 30-Nov-2015

 ----------------------------------------------------------------------
 # M062X/6-311+G* SCF=Tight INT(grid=ultrafine) SCRF=(SMD,Solvent=n-Pen
 tadecane) EmpiricalDispersion=GD3 Freq=Noraman maxdisk=2684354560 geom
 =check guess=read IOP(2/17=4)
 ----------------------------------------------------------------------

 -------------------------------------------
 NM2CA_c2.M062X_6-311pGd_opt_Pentadecane_GD3
 -------------------------------------------
 Structure from the checkpoint file:  "NM2CA_c2.M062X_6-311pGd_opt_Pentadecane_GD3.chk"
 Charge =  0 Multiplicity = 1

                         Standard orientation:
 ---------------------------------------------------------------------
 Center     Atomic      Atomic             Coordinates (Angstroms)
 Number     Number       Type             X           Y           Z
 ---------------------------------------------------------------------
      1          6           0        0.589221   -0.084205   -0.061087
      2          7           0        1.913633    0.349458   -0.089303
      3          6           0        3.046760   -0.424897   -0.021584
      4          8           0        3.082536   -1.626901    0.050222
      5          8           0        4.120764    0.373137   -0.046583
      6          6           0        5.395515   -0.291295    0.027035
      7          6           0        6.470845    0.772099   -0.006458
      8          6           0        7.857310    0.141898    0.078469
      9          6           0       -0.401123    0.905596   -0.020202
     10          6           0       -1.744366    0.575679    0.001973
     11          6           0       -2.134027   -0.771983   -0.023586
     12          6           0       -1.144570   -1.746340   -0.054083
     13          6           0        0.205908   -1.424854   -0.075354
     14          1           0        2.071922    1.346963   -0.129810
     15          1           0        5.481483   -0.980505   -0.816450
     16          1           0        5.433846   -0.875391    0.949637
     17          1           0        6.315802    1.462873    0.826921
     18          1           0        6.372275    1.351631   -0.928455
     19          1           0        7.980330   -0.424639    1.005092
     20          1           0        8.635624    0.906182    0.052579
     21          1           0        8.035951   -0.541168   -0.755910
     22          1           0       -0.108096    1.948619    0.004493
     23          1           0        0.947741   -2.207805   -0.103186
     24          6           0       -3.571960   -1.221793    0.019437
     25          6           0       -2.734301    1.718901    0.012381
     26          1           0       -1.428361   -2.790885   -0.070489
     27          9           0       -4.362141   -0.495983   -0.782244
     28          9           0       -4.091697   -1.153613    1.255190
     29          9           0       -3.695154   -2.498924   -0.372126
     30          9           0       -2.153742    2.866834    0.395010
     31          9           0       -3.752317    1.504982    0.851537
     32          9           0       -3.252906    1.942839   -1.202930
 ---------------------------------------------------------------------

 SCF Done:  E(RM062X) =  -1268.13173420     A.U. after    2 cycles

 The electronic state is 1-A.
 Alpha  occ. eigenvalues --  -25.28844 -25.28591 -25.28375 -25.28327 -25.28180
 Alpha  occ. eigenvalues --  -25.27854 -19.68137 -19.62270 -14.81091 -10.81670
 Alpha  occ. eigenvalues --  -10.81215 -10.71862 -10.62892 -10.60387 -10.60115
 Alpha  occ. eigenvalues --  -10.59368 -10.58185 -10.57861 -10.56838 -10.54301
 Alpha  occ. eigenvalues --  -10.53168  -1.48299  -1.47632  -1.38847  -1.38485
 Alpha  occ. eigenvalues --   -1.38222  -1.37909  -1.26306  -1.16380  -1.08783
 Alpha  occ. eigenvalues --   -1.00713  -0.91896  -0.90857  -0.89595  -0.83996
 Alpha  occ. eigenvalues --   -0.82017  -0.79882  -0.75775  -0.74845  -0.71540
 Alpha  occ. eigenvalues --   -0.70673  -0.70572  -0.70087  -0.69763  -0.69229
 Alpha  occ. eigenvalues --   -0.68144  -0.65460  -0.64931  -0.60449  -0.60048
 Alpha  occ. eigenvalues --   -0.58923  -0.58870  -0.58116  -0.58016  -0.57300
 Alpha  occ. eigenvalues --   -0.56018  -0.55380  -0.54727  -0.54396  -0.53577
 Alpha  occ. eigenvalues --   -0.53431  -0.52785  -0.52154  -0.51732  -0.51643
 Alpha  occ. eigenvalues --   -0.50958  -0.49874  -0.49702  -0.47015  -0.46487
 Alpha  occ. eigenvalues --   -0.45616  -0.44487  -0.43869  -0.41703  -0.41245
 Alpha  occ. eigenvalues --   -0.40645  -0.38823  -0.37980  -0.34690  -0.30571
 Alpha virt. eigenvalues --   -0.02499  -0.01326   0.00224   0.01895   0.02033
 Alpha virt. eigenvalues --    0.03092   0.03152   0.03510   0.04307   0.04545
 Alpha virt. eigenvalues --    0.04967   0.05075   0.06132   0.06480   0.06740

 Mulliken charges:
               1
     1  C   -0.665733
     2  N   -0.495128
     3  C    0.005645
     4  O   -0.301607
     5  O   -0.055720
     6  C   -0.347452
     7  C   -0.139973
     8  C   -1.046686
     9  C   -0.439650
    10  C   -0.652676
    11  C   -0.556993
    12  C    0.004354
    13  C    0.044287
    14  H    0.430779
    15  H    0.275942
    16  H    0.275196
    17  H    0.263676
    18  H    0.263716
    19  H    0.265025
    20  H    0.279239
    21  H    0.264582
    22  H    0.287831
    23  H    0.313833
    24  C    0.783384
    25  C    1.088902
    26  H    0.300735
    27  F   -0.073054
    28  F   -0.041882
    29  F   -0.118793
    30  F   -0.117529
    31  F   -0.060630
    32  F   -0.033621
 Sum of Mulliken charges =  -0.00000

 Dipole moment (field-independent basis, Debye):
    X=              7.1676    Y=              1.2364    Z=             -0.1971  Tot=              7.2762
 Quadrupole moment (field-independent basis, Debye-Ang):
   XX=           -117.4314   YY=           -121.1370   ZZ=           -122.0534
   XY=              7.9357   XZ=             -0.0159   YZ=              0.4143

  Exact polarizability: 240.273   2.113 169.322  -0.422  -0.147 111.064
 Approx polarizability: 215.316   1.858 197.559  -0.758  -0.293 132.472

                      1                      2                      3
                      A                      A                      A
 Frequencies --     22.8610                28.0013                53.6280
 Red. masses --      5.7141                 3.3633                 5.8535
 Frc consts  --      0.0018                 0.0016                 0.0099
 IR Inten    --      0.1049                 3.1563                 0.1486

                      4                      5                      6
                      A                      A                      A
 Frequencies --     59.5763                72.5656                81.9867
 Red. masses --      5.9338                 7.0534                 2.2220
 Frc consts  --      0.0124                 0.0219                 0.0088
 IR Inten    --      0.0545                 0.0994                 4.0919

                      7                      8                      9
                      A                      A                      A
 Frequencies --     93.0196               103.3693               136.4714
 Red. masses --     18.5635                 5.0354                 6.8336
 Frc consts  --      0.0946                 0.0317                 0.0750
 IR Inten    --      0.0732                 0.6426                 2.2337

                     10                     11                     12
                      A                      A                      A
 Frequencies --    143.6824               165.3415               175.5123
 Red. masses --      6.4776                12.8870                 3.4618
 Frc consts  --      0.0788                 0.2076                 0.0628
 IR Inten    --      1.9679                 0.1843                 3.9971

                     13                     14                     15
                      A                      A                      A
 Frequencies --    200.6558               233.1488               236.2965
 Red. masses --      8.4680                 2.6010                 1.6207
 Frc consts  --      0.2009                 0.0833                 0.0533
 IR Inten    --      0.1534                 1.3288                 0.8238

                     16                     17                     18
                      A                      A                      A
 Frequencies --    244.2640               257.3174               318.6821
 Red. masses --      5.8439                14.1939                 7.2064
 Frc consts  --      0.2054                 0.5537                 0.4312
 IR Inten    --      0.4154                 3.0893                 0.1665

                     19                     20                     21
                      A                      A                      A
 Frequencies --    339.6777               346.2752               356.3484
 Red. masses --     10.2242                 6.2164                 5.8628
 Frc consts  --      0.6950                 0.4392                 0.4386
 IR Inten    --      2.5298                 7.2783                15.3475

                     22                     23                     24
                      A                      A                      A
 Frequencies --    423.3089               426.5222               472.5631
 Red. masses --      6.1253                 6.1054                 7.6465
 Frc consts  --      0.6467                 0.6544                 1.0061
 IR Inten    --     14.1041                 8.2630                 3.2436

                     25                     26                     27
                      A                      A                      A
 Frequencies --    482.8251               504.8029               540.0513
 Red. masses --      6.0325                 6.4581                 9.9131
 Frc consts  --      0.8286                 0.9696                 1.7035
 IR Inten    --      1.1421                21.8728                 6.3228

                     28                     29                     30
                      A                      A                      A
 Frequencies --    557.2795               575.7701               607.8432
 Red. masses --      1.1426                15.1401                 5.3424
 Frc consts  --      0.2091                 2.9572                 1.1630
 IR Inten    --     89.5329                 1.7573                20.8098

                     31                     32                     33
                      A                      A                      A
 Frequencies --    624.8197               655.2792               667.8214
 Red. masses --      8.8635                 6.1432                 7.5552
 Frc consts  --      2.0388                 1.5542                 1.9853
 IR Inten    --      1.1500                 0.3989                 7.2785

                     34                     35                     36
                      A                      A                      A
 Frequencies --    677.1183               762.3365               765.9392
 Red. masses --      8.9929                 4.6584                 8.5708
 Frc consts  --      2.4293                 1.5951                 2.9625
 IR Inten    --     14.7513                 1.9517                 9.2389

                     37                     38                     39
                      A                      A                      A
 Frequencies --    766.9281               783.4872               791.6884
 Red. masses --      1.1361                11.2148                 7.7040
 Frc consts  --      0.3937                 4.0561                 2.8450
 IR Inten    --      6.7779                 5.7249                17.2290

                     40                     41                     42
                      A                      A                      A
 Frequencies --    815.0797               877.1297               906.2871
 Red. masses --      8.6866                 1.4176                 1.1520
 Frc consts  --      3.4002                 0.6426                 0.5575
 IR Inten    --      6.2735                47.7934                 2.8642

                     43                     44                     45
                      A                      A                      A
 Frequencies --    915.6412               922.1848               947.0085
 Red. masses --      1.5621                 2.3374                 2.6558
 Frc consts  --      0.7716                 1.1712                 1.4033
 IR Inten    --     35.0928                15.7251                30.5779

                     46                     47                     48
                      A                      A                      A
 Frequencies --   1010.2476              1027.4509              1048.4938
 Red. masses --      1.3393                 7.2730                 6.1984
 Frc consts  --      0.8053                 4.5236                 4.0148
 IR Inten    --      0.9314                32.6871                72.2255

                     49                     50                     51
                      A                      A                      A
 Frequencies --   1076.8959              1120.7110              1132.6997
 Red. masses --      2.5083                 6.3961                 3.1549
 Frc consts  --      1.7139                 4.7332                 2.3849
 IR Inten    --     16.1641                21.8357               276.7306

                     52                     53                     54
                      A                      A                      A
 Frequencies --   1164.9747              1170.0016              1176.1955
 Red. masses --      2.6857                 2.4509                12.5209
 Frc consts  --      2.1475                 1.9768                10.2057
 IR Inten    --     96.3657                41.0161                29.1369

                     55                     56                     57
                      A                      A                      A
 Frequencies --   1195.5582              1204.1287              1213.7309
 Red. masses --      1.6568                 5.4806                 2.6937
 Frc consts  --      1.3953                 4.6819                 2.3380
 IR Inten    --      1.1425               545.4526               335.6303

                     58                     59                     60
                      A                      A                      A
 Frequencies --   1226.2390              1255.9158              1288.8820
 Red. masses --      7.3443                 2.2538                 3.4253
 Frc consts  --      6.5065                 2.0945                 3.3525
 IR Inten    --    373.1732               623.3224               701.5521

                     61                     62                     63
                      A                      A                      A
 Frequencies --   1293.3458              1318.6035              1339.8132
 Red. masses --      1.1884                 2.1506                 1.0672
 Frc consts  --      1.1712                 2.2031                 1.1287
 IR Inten    --      4.7211               163.2364                 1.0713

                     64                     65                     66
                      A                      A                      A
 Frequencies --   1344.9018              1349.2542              1355.1817
 Red. masses --      2.9109                 1.7899                 2.9369
 Frc consts  --      3.1021                 1.9198                 3.1778
 IR Inten    --    103.2002               156.5918                94.5955

                     67                     68                     69
                      A                      A                      A
 Frequencies --   1374.2030              1431.8827              1440.7573
 Red. masses --      4.5835                 1.2855                 1.6350
 Frc consts  --      5.0997                 1.5529                 1.9996
 IR Inten    --    471.7202                 3.3304                62.9566

                     70                     71                     72
                      A                      A                      A
 Frequencies --   1464.4836              1504.5938              1518.6666
 Red. masses --      2.9493                 1.0621                 1.0370
 Frc consts  --      3.7268                 1.4166                 1.4092
 IR Inten    --     54.5749                 1.5732                11.9356

                     73                     74                     75
                      A                      A                      A
 Frequencies --   1521.3778              1534.8096              1573.3789
 Red. masses --      1.0880                 1.1029                 2.8042
 Frc consts  --      1.4837                 1.5307                 4.0900
 IR Inten    --      1.7487                48.7254               222.2434

                     76                     77                     78
                      A                      A                      A
 Frequencies --   1585.4057              1663.6506              1694.2604
 Red. masses --      2.8813                 5.7964                 6.5124
 Frc consts  --      4.2670                 9.4522                11.0142
 IR Inten    --    718.1196                 6.9661               117.0460

                     79                     80                     81
                      A                      A                      A
 Frequencies --   1839.6061              3070.4169              3080.2141
 Red. masses --     10.5973                 1.0379                 1.0600
 Frc consts  --     21.1299                 5.7650                 5.9256
 IR Inten    --    384.1970                21.5718                10.1807

                     82                     83                     84
                      A                      A                      A
 Frequencies --   3092.6231              3113.4488              3135.0580
 Red. masses --      1.0574                 1.1042                 1.1056
 Frc consts  --      5.9587                 6.3063                 6.4023
 IR Inten    --     35.9712                 0.1201                 5.9906

                     85                     86                     87
                      A                      A                      A
 Frequencies --   3149.5576              3150.4202              3225.0376
 Red. masses --      1.1082                 1.1016                 1.0919
 Frc consts  --      6.4768                 6.4420                 6.6911
 IR Inten    --     63.3312                27.8389                 2.6893

                     88                     89                     90
                      A                      A                      A
 Frequencies --   3248.8322              3288.8175              3632.5407
 Red. masses --      1.0914                 1.0935                 1.0781
 Frc consts  --      6.7869                 6.9687                 8.3817
 IR Inten    --      0.1041                 8.9779                79.2764

 - Thermochemistry -
 -------------------
 Temperature   298.150 Kelvin.  Pressure   1.00000 Atm.
 Atom     1 has atomic number  6 and mass  12.00000

 Molecular mass:   315.06940 amu.
 Principal axes and moments of inertia in atomic units:
                           1         2         3
     Eigenvalues --  2609.47651********************
           X            0.99999   0.00362   0.00060
           Y           -0.00362   0.99999   0.00050
           Z           -0.00060  -0.00050   1.00000
 This molecule is an asymmetric top.
 Rotational symmetry number  1.
 Warning -- assumption of classical behavior for rotation
           may cause significant error
 Rotational temperatures (Kelvin)      0.03319     0.00544     0.00485
 Rotational constants (GHZ):           0.69161     0.11327     0.10097
 Zero-point vibrational energy     602832.1 (Joules/Mol)
                                  144.08034 (Kcal/Mol)
 Warning -- explicit consideration of  30 degrees of freedom as
           vibrations may cause significant error
 Vibrational temperatures:     32.89    40.29    77.16    85.72   104.41
          (Kelvin)            117.96   133.83   148.73   196.35   206.73
                              237.89   252.52   288.70   335.45   339.98
                              351.44   370.22   458.51   488.72   498.21
                              512.71   609.05   613.67   679.91   694.68
                              726.30   777.01   801.80   828.40   874.55
                              898.98   942.80   960.84   974.22  1096.83
                             1102.01  1103.44  1127.26  1139.06  1172.72
                             1261.99  1303.94  1317.40  1326.82  1362.53
                             1453.52  1478.27  1508.55  1549.41  1612.45
                             1629.70  1676.14  1683.37  1692.28  1720.14
                             1732.47  1746.29  1764.28  1806.98  1854.41
                             1860.83  1897.17  1927.69  1935.01  1941.27
                             1949.80  1977.17  2060.16  2072.93  2107.06
                             2164.77  2185.02  2188.92  2208.25  2263.74
                             2281.04  2393.62  2437.66  2646.78  4417.64
                             4431.74  4449.59  4479.55  4510.64  4531.51
                             4532.75  4640.10  4674.34  4731.87  5226.41

 Zero-point correction=                           0.229607 (Hartree/Particle)
 Thermal correction to Energy=                    0.249176
 Thermal correction to Enthalpy=                  0.250120
 Thermal correction to Gibbs Free Energy=         0.179102
 Sum of electronic and zero-point Energies=          -1267.902128
 Sum of electronic and thermal Energies=             -1267.882558
 Sum of electronic and thermal Enthalpies=           -1267.881614
 Sum of electronic and thermal Free Energies=        -1267.952632

                     E (Thermal)             CV                S
                      KCal/Mol        Cal/Mol-Kelvin    Cal/Mol-Kelvin
 Total                  156.360             71.169            149.471
 Electronic               0.000              0.000              0.000
 Translational            0.889              2.981             43.139
 Rotational               0.889              2.981             34.962
 Vibrational            154.583             65.207             71.370
 Vibration     1          0.593              1.985              6.369
 Vibration     2          0.593              1.984              5.966
 Vibration     3          0.596              1.976              4.679
 Vibration     4          0.597              1.974              4.471
 Vibration     5          0.599              1.967              4.083
 Vibration     6          0.600              1.961              3.843
 Vibration     7          0.602              1.954              3.596
 Vibration     8          0.605              1.947              3.390
 Vibration     9          0.614              1.917              2.853
 Vibration    10          0.616              1.909              2.754
 Vibration    11          0.624              1.885              2.488
 Vibration    12          0.627              1.873              2.376
 Vibration    13          0.638              1.839              2.127
 Vibration    14          0.654              1.790              1.855
 Vibration    15          0.655              1.785              1.831
 Vibration    16          0.660              1.772              1.772
 Vibration    17          0.667              1.750              1.680
 Vibration    18          0.705              1.638              1.317
 Vibration    19          0.720              1.596              1.214
 Vibration    20          0.724              1.583              1.183
 Vibration    21          0.732              1.562              1.138
 Vibration    22          0.785              1.420              0.881
 Vibration    23          0.788              1.413              0.870
 Vibration    24          0.829              1.311              0.730
 Vibration    25          0.839              1.288              0.702
 Vibration    26          0.860              1.239              0.646
 Vibration    27          0.895              1.162              0.565
 Vibration    28          0.913              1.124              0.529
 Vibration    29          0.932              1.084              0.493
 Vibration    30          0.967              1.015              0.436

 Optimization completed.
    -- Stationary point found.
 Normal termination of Gaussian 09 at Thu Nov 14 16:46:42 2019.
