 Gaussian 09, Revision E.01,
 Gaussian 09:  ES64L-G09RevE.01 30-Nov-2015

 -------------------------------------------------------------
 # MP2/Gen 6D SCF=Tight INT(grid=ultrafine) maxdisk=3489660928
 -------------------------------------------------------------

 --------------------
 NM2CA_c2.MP2_6-31pGd
 --------------------
 Symbolic Z-matrix:
 Charge =  0 Multiplicity = 1

                         Standard orientation:
 ---------------------------------------------------------------------
 Center     Atomic      Atomic             Coordinates (Angstroms)
 Number     Number       Type             X           Y           Z
 ---------------------------------------------------------------------
      1          6           0        0.587052   -0.076126   -0.011015
      2          7           0        1.913396    0.359076   -0.010192
      3          6           0        3.046504   -0.419858   -0.011510
      4          8           0        3.084623   -1.622112   -0.020585
      5          8           0        4.122192    0.381248   -0.001066
      6          6           0        5.392527   -0.290741   -0.001189
      7          6           0        6.472745    0.768735    0.019563
      8          6           0        7.859804    0.131831    0.019641
      9          6           0       -0.406478    0.909672    0.004278
     10          6           0       -1.749847    0.577266    0.008819
     11          6           0       -2.134341   -0.770793   -0.013683
     12          6           0       -1.140942   -1.741803   -0.023384
     13          6           0        0.209247   -1.418204   -0.023477
     14          1           0        2.076831    1.355231    0.000109
     15          1           0        5.457188   -0.919534   -0.892478
     16          1           0        5.445531   -0.942216    0.874392
     17          1           0        6.340491    1.394684    0.906164
     18          1           0        6.351368    1.418199   -0.851548
     19          1           0        8.003276   -0.507075    0.894368
     20          1           0        8.639828    0.893846    0.035039
     21          1           0        8.014449   -0.482885   -0.870373
     22          1           0       -0.121226    1.954989    0.021093
     23          1           0        0.956515   -2.196507   -0.033799
     24          6           0       -3.572564   -1.227470    0.012105
     25          6           0       -2.742469    1.720264   -0.003356
     26          1           0       -1.424638   -2.786274   -0.038587
     27          9           0       -4.351672   -0.508781   -0.802923
     28          9           0       -4.102036   -1.157376    1.241151
     29          9           0       -3.678381   -2.507136   -0.377023
     30          9           0       -2.161895    2.870000    0.377165
     31          9           0       -3.766559    1.511188    0.826125
     32          9           0       -3.241161    1.931471   -1.226783
 ---------------------------------------------------------------------

 SCF Done:  E(RHF) =  -1261.72819896     A.U. after   17 cycles
 E2 =    -0.3105947936D+01 EUMP2 =    -0.12648341468978D+04

 The electronic state is 1-A.
 Alpha  occ. eigenvalues --  -26.36255 -26.35884 -26.35639 -26.35624 -26.35333
 Alpha  occ. eigenvalues --  -26.34991 -20.63605 -20.57277 -15.64156 -11.53157
 Alpha  occ. eigenvalues --  -11.52533 -11.44086 -11.33330 -11.30631 -11.30495
 Alpha  occ. eigenvalues --  -11.29026 -11.28129 -11.28111 -11.26598 -11.24517
 Alpha  occ. eigenvalues --  -11.23591  -1.74558  -1.73776  -1.64793  -1.64421
 Alpha  occ. eigenvalues --   -1.64075  -1.63712  -1.49984  -1.39202  -1.29753
 Alpha  occ. eigenvalues --   -1.20421  -1.09940  -1.08852  -1.07691  -1.00033
 Alpha  occ. eigenvalues --   -0.97604  -0.95536  -0.90126  -0.89082  -0.85302
 Alpha  occ. eigenvalues --   -0.83553  -0.83441  -0.83253  -0.82662  -0.82324
 Alpha  occ. eigenvalues --   -0.81869  -0.78060  -0.77688  -0.72559  -0.72112
 Alpha  occ. eigenvalues --   -0.71912  -0.71513  -0.71218  -0.71188  -0.69208
 Alpha  occ. eigenvalues --   -0.67871  -0.67309  -0.67152  -0.66193  -0.65567
 Alpha  occ. eigenvalues --   -0.65281  -0.64854  -0.64749  -0.64726  -0.62560
 Alpha  occ. eigenvalues --   -0.61837  -0.60495  -0.59216  -0.56893  -0.55677
 Alpha  occ. eigenvalues --   -0.55357  -0.54411  -0.53300  -0.50846  -0.50654
 Alpha  occ. eigenvalues --   -0.48444  -0.48228  -0.47964  -0.38276  -0.34719
 Alpha virt. eigenvalues --    0.05530   0.07468   0.07517   0.07639   0.07891
 Alpha virt. eigenvalues --    0.08754   0.09118   0.09185   0.10264   0.10516
 Alpha virt. eigenvalues --    0.10836   0.10964   0.11949   0.12139   0.12501

 Mulliken charges:
               1
     1  C   -0.005975
     2  N   -0.934394
     3  C    0.681223
     4  O   -0.581479
     5  O   -0.476205
     6  C    0.039861
     7  C   -0.278617
     8  C   -0.691680
     9  C   -0.666888
    10  C   -0.778740
    11  C   -0.753244
    12  C   -0.020047
    13  C    0.171250
    14  H    0.501020
    15  H    0.212109
    16  H    0.212288
    17  H    0.205107
    18  H    0.205073
    19  H    0.196579
    20  H    0.205212
    21  H    0.196578
    22  H    0.271012
    23  H    0.319606
    24  C    1.807224
    25  C    1.994922
    26  H    0.283248
    27  F   -0.379493
    28  F   -0.356959
    29  F   -0.427633
    30  F   -0.430270
    31  F   -0.370195
    32  F   -0.350494
 Sum of Mulliken charges =  -0.00000

 Dipole moment (field-independent basis, Debye):
    X=              6.5022    Y=              1.1715    Z=              0.0071  Tot=              6.6069
 Quadrupole moment (field-independent basis, Debye-Ang):
   XX=           -117.8112   YY=           -122.1260   ZZ=           -122.2728
   XY=              7.4966   XZ=              0.1661   YZ=              0.1012

 Normal termination of Gaussian 09 at Mon Dec  9 10:59:06 2019.
