 Gaussian 09, Revision E.01,
 Gaussian 09:  ES64L-G09RevE.01 30-Nov-2015

 -------------------------------------------------------------
 # MP2/Gen 6D SCF=Tight INT(grid=ultrafine) maxdisk=3489660928
 -------------------------------------------------------------

 -----------------
 NM2CA.MP2_6-31pGd
 -----------------
 Symbolic Z-matrix:
 Charge =  0 Multiplicity = 1

                         Standard orientation:
 ---------------------------------------------------------------------
 Center     Atomic      Atomic             Coordinates (Angstroms)
 Number     Number       Type             X           Y           Z
 ---------------------------------------------------------------------
      1          6           0        0.510894   -0.952751   -0.013891
      2          7           0        1.900103   -1.087861   -0.019826
      3          6           0        2.841286   -0.084827   -0.005673
      4          8           0        2.622845    1.097420    0.006315
      5          8           0        4.062995   -0.639152   -0.007610
      6          6           0        5.160562    0.288851    0.004933
      7          6           0        6.442322   -0.515381    0.002094
      8          6           0        7.661199    0.403209    0.014100
      9          6           0       -0.139634    0.285414   -0.025189
     10          6           0       -1.526917    0.343048   -0.018522
     11          6           0       -2.295005   -0.827718    0.010568
     12          6           0       -1.635329   -2.052406    0.011787
     13          6           0       -0.253697   -2.119676   -0.000161
     14          1           0        2.273384   -2.025723   -0.023219
     15          1           0        5.077848    0.918673    0.893893
     16          1           0        5.084170    0.934995   -0.872831
     17          1           0        6.457785   -1.157833   -0.882478
     18          1           0        6.452016   -1.173182    0.875404
     19          1           0        7.675742    1.054962   -0.862761
     20          1           0        8.586181   -0.174540    0.012362
     21          1           0        7.669711    1.039982    0.901979
     22          1           0        0.438986    1.195872   -0.044829
     23          1           0        0.235210   -3.088367    0.005144
     24          6           0       -3.804923   -0.844213    0.004577
     25          6           0       -2.146762    1.726140   -0.002030
     26          1           0       -2.211261   -2.968380    0.030794
     27          9           0       -4.331326    0.064624    0.830141
     28          9           0       -4.271741   -2.041247    0.397109
     29          9           0       -4.308735   -0.623326   -1.216894
     30          9           0       -1.273523    2.657378   -0.404697
     31          9           0       -2.541966    2.073184    1.229140
     32          9           0       -3.207285    1.813197   -0.810341
 ---------------------------------------------------------------------

 SCF Done:  E(RHF) =  -1261.72720505     A.U. after   17 cycles
 E2 =    -0.3106289205D+01 EUMP2 =    -0.12648334942520D+04

 The electronic state is 1-A.
 Alpha  occ. eigenvalues --  -26.35619 -26.35446 -26.35284 -26.35251 -26.35001
 Alpha  occ. eigenvalues --  -26.34937 -20.63556 -20.57198 -15.64132 -11.52499
 Alpha  occ. eigenvalues --  -11.52484 -11.44024 -11.33353 -11.30558 -11.30146
 Alpha  occ. eigenvalues --  -11.29014 -11.28411 -11.27629 -11.26994 -11.24486
 Alpha  occ. eigenvalues --  -11.23541  -1.74052  -1.73581  -1.64271  -1.63925
 Alpha  occ. eigenvalues --   -1.63776  -1.63600  -1.49927  -1.39153  -1.29719
 Alpha  occ. eigenvalues --   -1.20291  -1.09983  -1.08681  -1.07584  -0.99565
 Alpha  occ. eigenvalues --   -0.97740  -0.95384  -0.89959  -0.89157  -0.84607
 Alpha  occ. eigenvalues --   -0.83358  -0.83057  -0.82821  -0.82408  -0.82018
 Alpha  occ. eigenvalues --   -0.81538  -0.79340  -0.76681  -0.72728  -0.71665
 Alpha  occ. eigenvalues --   -0.71532  -0.71452  -0.70968  -0.70929  -0.68838
 Alpha  occ. eigenvalues --   -0.68099  -0.66724  -0.66552  -0.65921  -0.65119
 Alpha  occ. eigenvalues --   -0.64753  -0.64720  -0.64673  -0.64561  -0.62935
 Alpha  occ. eigenvalues --   -0.61767  -0.60202  -0.59169  -0.56910  -0.55706
 Alpha  occ. eigenvalues --   -0.55287  -0.54167  -0.53266  -0.50794  -0.50609
 Alpha  occ. eigenvalues --   -0.48401  -0.48169  -0.47907  -0.38265  -0.34674
 Alpha virt. eigenvalues --    0.04957   0.07093   0.07235   0.07704   0.08450
 Alpha virt. eigenvalues --    0.08568   0.09158   0.09281   0.10427   0.10709
 Alpha virt. eigenvalues --    0.10849   0.11009   0.12100   0.12401   0.12838

 Mulliken charges:
               1
     1  C   -0.386255
     2  N   -0.930192
     3  C    0.733630
     4  O   -0.584338
     5  O   -0.475770
     6  C    0.078005
     7  C   -0.282654
     8  C   -0.688395
     9  C    0.234747
    10  C   -0.741835
    11  C   -0.871152
    12  C   -0.145418
    13  C   -0.388920
    14  H    0.500062
    15  H    0.213157
    16  H    0.213239
    17  H    0.204425
    18  H    0.204385
    19  H    0.197025
    20  H    0.204740
    21  H    0.197021
    22  H    0.353768
    23  H    0.243231
    24  C    1.994755
    25  C    1.954238
    26  H    0.282209
    27  F   -0.380086
    28  F   -0.426501
    29  F   -0.356862
    30  F   -0.422675
    31  F   -0.351346
    32  F   -0.376237
 Sum of Mulliken charges =  -0.00000

 Dipole moment (field-independent basis, Debye):
    X=              6.4914    Y=             -4.5307    Z=             -0.0310  Tot=              7.9162
 Quadrupole moment (field-independent basis, Debye-Ang):
   XX=           -114.8443   YY=           -117.2809   ZZ=           -122.3027
   XY=             -1.0411   XZ=             -0.0444   YZ=             -0.1334

 Normal termination of Gaussian 09 at Mon Dec  9 11:01:29 2019.
