 Gaussian 16, Revision C.01,
 Gaussian 16:  ES64L-G16RevC.01  3-Jul-2019

 ---------------------------------------------------------------------
 # DSDPBEP86/AUG-cc-PVTZ SCF=Tight INT(grid=ultrafine) MaxDisk=60000MB
 ---------------------------------------------------------------------

 ------------------------------
 NM2CA_c2.DSDPBEP86_AUG-cc-PVTZ
 ------------------------------
 Symbolic Z-matrix:
 Charge =  0 Multiplicity = 1

                         Standard orientation:
 ---------------------------------------------------------------------
 Center     Atomic      Atomic             Coordinates (Angstroms)
 Number     Number       Type             X           Y           Z
 ---------------------------------------------------------------------
      1          6           0        0.587052   -0.076126   -0.011015
      2          7           0        1.913396    0.359076   -0.010192
      3          6           0        3.046504   -0.419858   -0.011510
      4          8           0        3.084623   -1.622112   -0.020585
      5          8           0        4.122192    0.381248   -0.001066
      6          6           0        5.392527   -0.290741   -0.001189
      7          6           0        6.472745    0.768735    0.019563
      8          6           0        7.859804    0.131831    0.019641
      9          6           0       -0.406478    0.909672    0.004278
     10          6           0       -1.749847    0.577266    0.008819
     11          6           0       -2.134341   -0.770793   -0.013683
     12          6           0       -1.140942   -1.741803   -0.023384
     13          6           0        0.209247   -1.418204   -0.023477
     14          1           0        2.076831    1.355231    0.000109
     15          1           0        5.457188   -0.919534   -0.892478
     16          1           0        5.445531   -0.942216    0.874392
     17          1           0        6.340491    1.394684    0.906164
     18          1           0        6.351368    1.418199   -0.851548
     19          1           0        8.003276   -0.507075    0.894368
     20          1           0        8.639828    0.893846    0.035039
     21          1           0        8.014449   -0.482885   -0.870373
     22          1           0       -0.121226    1.954989    0.021093
     23          1           0        0.956515   -2.196507   -0.033799
     24          6           0       -3.572564   -1.227470    0.012105
     25          6           0       -2.742469    1.720264   -0.003356
     26          1           0       -1.424638   -2.786274   -0.038587
     27          9           0       -4.351672   -0.508781   -0.802923
     28          9           0       -4.102036   -1.157376    1.241151
     29          9           0       -3.678381   -2.507136   -0.377023
     30          9           0       -2.161895    2.870000    0.377165
     31          9           0       -3.766559    1.511188    0.826125
     32          9           0       -3.241161    1.931471   -1.226783
 ---------------------------------------------------------------------

 SCF Done:  E(RDSDPBEP86) =  -1264.69335741     A.U. after   13 cycles
 E2(DSDPBEP86) =    -0.2058418123D+01 E(DSDPBEP86) =    -0.12667517755338D+04

 The electronic state is 1-A.
 Alpha  occ. eigenvalues --  -25.71856 -25.71525 -25.71302 -25.71274 -25.71016
 Alpha  occ. eigenvalues --  -25.70722 -20.06949 -20.00346 -15.14854 -11.09703
 Alpha  occ. eigenvalues --  -11.09136 -11.00644 -10.91121 -10.88823 -10.88300
 Alpha  occ. eigenvalues --  -10.87060 -10.86127 -10.85954 -10.84730 -10.83099
 Alpha  occ. eigenvalues --  -10.82086  -1.58502  -1.57758  -1.49047  -1.48726
 Alpha  occ. eigenvalues --   -1.48360  -1.48061  -1.36174  -1.25907  -1.17710
 Alpha  occ. eigenvalues --   -1.08870  -0.99395  -0.98153  -0.97200  -0.90116
 Alpha  occ. eigenvalues --   -0.87988  -0.85986  -0.81159  -0.80229  -0.76736
 Alpha  occ. eigenvalues --   -0.74928  -0.74809  -0.74597  -0.74070  -0.73684
 Alpha  occ. eigenvalues --   -0.73301  -0.70072  -0.69795  -0.64850  -0.64354
 Alpha  occ. eigenvalues --   -0.63101  -0.63048  -0.62282  -0.62204  -0.61577
 Alpha  occ. eigenvalues --   -0.60048  -0.59586  -0.58651  -0.58348  -0.57723
 Alpha  occ. eigenvalues --   -0.57488  -0.56805  -0.56327  -0.55893  -0.55818
 Alpha  occ. eigenvalues --   -0.54765  -0.53437  -0.53212  -0.50504  -0.49921
 Alpha  occ. eigenvalues --   -0.49126  -0.48065  -0.47765  -0.45197  -0.45069
 Alpha  occ. eigenvalues --   -0.43346  -0.42368  -0.41401  -0.35266  -0.31613
 Alpha virt. eigenvalues --    0.00870   0.01628   0.02014   0.02303   0.02432
 Alpha virt. eigenvalues --    0.02970   0.03209   0.03595   0.04882   0.05044
 Alpha virt. eigenvalues --    0.05077   0.05148   0.05857   0.06542   0.06582

 Mulliken charges:
               1
     1  C    0.718263
     2  N   -0.159408
     3  C    0.523347
     4  O   -0.804512
     5  O   -0.416157
     6  C   -0.205551
     7  C   -0.469439
     8  C   -0.964333
     9  C   -1.012063
    10  C    0.495933
    11  C    0.431026
    12  C   -0.949320
    13  C   -0.372489
    14  H   -0.014887
    15  H    0.336591
    16  H    0.339398
    17  H    0.212271
    18  H    0.211891
    19  H    0.278370
    20  H    0.287271
    21  H    0.278455
    22  H    0.269629
    23  H    0.683646
    24  C    1.205428
    25  C    1.243188
    26  H    0.278464
    27  F   -0.433095
    28  F   -0.406310
    29  F   -0.374774
    30  F   -0.376345
    31  F   -0.430855
    32  F   -0.403632
 Sum of Mulliken charges =  -0.00000

 Dipole moment (field-independent basis, Debye):
    X=              6.2631    Y=              1.2132    Z=              0.0066  Tot=              6.3795
 Quadrupole moment (field-independent basis, Debye-Ang):
   XX=           -115.7571   YY=           -120.7591   ZZ=           -120.6966
   XY=              7.3680   XZ=              0.1681   YZ=              0.1273

 Normal termination of Gaussian 16 at Thu Sep 10 15:47:05 2020.
