 Gaussian 09, Revision E.01,
 Gaussian 09:  ES64L-G09RevE.01 30-Nov-2015

 -------------------------------------------------------------
 # MP2/Gen 5D SCF=Tight INT(grid=ultrafine) maxdisk=3489660928
 -------------------------------------------------------------

 -----------------------
 NM2CA_c2.MP2_GTMP2LARGE
 -----------------------
 Symbolic Z-matrix:
 Charge =  0 Multiplicity = 1

                         Standard orientation:
 ---------------------------------------------------------------------
 Center     Atomic      Atomic             Coordinates (Angstroms)
 Number     Number       Type             X           Y           Z
 ---------------------------------------------------------------------
      1          6           0        0.587052   -0.076126   -0.011015
      2          7           0        1.913396    0.359076   -0.010192
      3          6           0        3.046504   -0.419858   -0.011510
      4          8           0        3.084623   -1.622112   -0.020585
      5          8           0        4.122192    0.381248   -0.001066
      6          6           0        5.392527   -0.290741   -0.001189
      7          6           0        6.472745    0.768735    0.019563
      8          6           0        7.859804    0.131831    0.019641
      9          6           0       -0.406478    0.909672    0.004278
     10          6           0       -1.749847    0.577266    0.008819
     11          6           0       -2.134341   -0.770793   -0.013683
     12          6           0       -1.140942   -1.741803   -0.023384
     13          6           0        0.209247   -1.418204   -0.023477
     14          1           0        2.076831    1.355231    0.000109
     15          1           0        5.457188   -0.919534   -0.892478
     16          1           0        5.445531   -0.942216    0.874392
     17          1           0        6.340491    1.394684    0.906164
     18          1           0        6.351368    1.418199   -0.851548
     19          1           0        8.003276   -0.507075    0.894368
     20          1           0        8.639828    0.893846    0.035039
     21          1           0        8.014449   -0.482885   -0.870373
     22          1           0       -0.121226    1.954989    0.021093
     23          1           0        0.956515   -2.196507   -0.033799
     24          6           0       -3.572564   -1.227470    0.012105
     25          6           0       -2.742469    1.720264   -0.003356
     26          1           0       -1.424638   -2.786274   -0.038587
     27          9           0       -4.351672   -0.508781   -0.802923
     28          9           0       -4.102036   -1.157376    1.241151
     29          9           0       -3.678381   -2.507136   -0.377023
     30          9           0       -2.161895    2.870000    0.377165
     31          9           0       -3.766559    1.511188    0.826125
     32          9           0       -3.241161    1.931471   -1.226783
 ---------------------------------------------------------------------

 SCF Done:  E(RHF) =  -1262.11803983     A.U. after   16 cycles
 E2 =    -0.4038915716D+01 EUMP2 =    -0.12661569555457D+04

 The electronic state is 1-A.
 Alpha  occ. eigenvalues --  -26.34618 -26.34281 -26.34039 -26.33999 -26.33728
 Alpha  occ. eigenvalues --  -26.33404 -20.62123 -20.55511 -15.62922 -11.51933
 Alpha  occ. eigenvalues --  -11.51308 -11.42951 -11.32601 -11.30020 -11.29718
 Alpha  occ. eigenvalues --  -11.28225 -11.27318 -11.27299 -11.25825 -11.23993
 Alpha  occ. eigenvalues --  -11.23063  -1.73974  -1.73186  -1.64268  -1.63922
 Alpha  occ. eigenvalues --   -1.63545  -1.63210  -1.49442  -1.38681  -1.29350
 Alpha  occ. eigenvalues --   -1.19987  -1.09558  -1.08464  -1.07326  -0.99694
 Alpha  occ. eigenvalues --   -0.97278  -0.95220  -0.89811  -0.88759  -0.84998
 Alpha  occ. eigenvalues --   -0.83282  -0.83196  -0.83005  -0.82412  -0.82064
 Alpha  occ. eigenvalues --   -0.81594  -0.77805  -0.77361  -0.72322  -0.71958
 Alpha  occ. eigenvalues --   -0.71738  -0.71373  -0.71053  -0.71022  -0.69023
 Alpha  occ. eigenvalues --   -0.67676  -0.67103  -0.67011  -0.66096  -0.65375
 Alpha  occ. eigenvalues --   -0.65212  -0.64687  -0.64631  -0.64576  -0.62347
 Alpha  occ. eigenvalues --   -0.61543  -0.60211  -0.59098  -0.56686  -0.55401
 Alpha  occ. eigenvalues --   -0.55228  -0.54126  -0.53079  -0.50722  -0.50437
 Alpha  occ. eigenvalues --   -0.48385  -0.48161  -0.47850  -0.38186  -0.34677
 Alpha virt. eigenvalues --    0.03124   0.03972   0.04685   0.05290   0.05741
 Alpha virt. eigenvalues --    0.06194   0.07428   0.07858   0.07976   0.08335
 Alpha virt. eigenvalues --    0.08971   0.09113   0.09914   0.10334   0.10823

 Mulliken charges:
               1
     1  C    0.010638
     2  N   -0.437648
     3  C    0.392845
     4  O   -0.441473
     5  O   -0.211624
     6  C    0.062168
     7  C    0.266291
     8  C   -0.447995
     9  C   -0.522722
    10  C   -0.394705
    11  C   -0.381513
    12  C   -0.037184
    13  C   -0.433090
    14  H    0.227464
    15  H    0.102475
    16  H    0.102715
    17  H    0.048249
    18  H    0.048704
    19  H    0.058588
    20  H    0.091731
    21  H    0.058331
    22  H    0.151091
    23  H    0.251606
    24  C    1.288646
    25  C    1.584888
    26  H    0.185505
    27  F   -0.272159
    28  F   -0.253767
    29  F   -0.297647
    30  F   -0.293478
    31  F   -0.261728
    32  F   -0.245203
 Sum of Mulliken charges =  -0.00000

 Dipole moment (field-independent basis, Debye):
    X=              6.4925    Y=              1.1928    Z=              0.0058  Tot=              6.6012
 Quadrupole moment (field-independent basis, Debye-Ang):
   XX=           -117.1945   YY=           -121.4448   ZZ=           -121.4217
   XY=              7.5213   XZ=              0.1669   YZ=              0.1025

 Normal termination of Gaussian 09 at Mon Dec  9 12:00:28 2019.
