 Gaussian 09, Revision E.01,

 ----------------------------------------------------------------------
 # M062X/6-311+G* SCF=Tight INT(grid=ultrafine) OPT IOP(2/17=4) Empiric
 alDispersion=GD3 SCRF=(SMD,Solvent=n-Pentadecane) maxdisk=2684354560
 ----------------------------------------------------------------------

 ----------------------------------------
 NM2CA.M062X_6-311pGd_opt_Pentadecane_GD3
 ----------------------------------------
 Symbolic Z-matrix:
 Charge =  0 Multiplicity = 1

 SCF Done:  E(RM062X) =  -1268.13125732     A.U. after   16 cycles
 Optimization completed.
    -- Stationary point found.
 Normal termination of Gaussian 09 at Thu Nov 14 16:11:51 2019.
 Gaussian 09:  ES64L-G09RevE.01 30-Nov-2015

 ----------------------------------------------------------------------
 # M062X/6-311+G* SCF=Tight INT(grid=ultrafine) SCRF=(SMD,Solvent=n-Pen
 tadecane) EmpiricalDispersion=GD3 Freq=Noraman maxdisk=2684354560 geom
 =check guess=read IOP(2/17=4)
 ----------------------------------------------------------------------

 ----------------------------------------
 NM2CA.M062X_6-311pGd_opt_Pentadecane_GD3
 ----------------------------------------
 Structure from the checkpoint file:  "NM2CA.M062X_6-311pGd_opt_Pentadecane_GD3.chk"
 Charge =  0 Multiplicity = 1

                         Standard orientation:
 ---------------------------------------------------------------------
 Center     Atomic      Atomic             Coordinates (Angstroms)
 Number     Number       Type             X           Y           Z
 ---------------------------------------------------------------------
      1          6           0       -0.514241   -0.948795   -0.022965
      2          7           0       -1.901523   -1.084072   -0.034650
      3          6           0       -2.843914   -0.084525    0.001158
      4          8           0       -2.623571    1.098987    0.039865
      5          8           0       -4.063425   -0.636023   -0.013703
      6          6           0       -5.165630    0.289678    0.018579
      7          6           0       -6.445623   -0.515571   -0.012475
      8          6           0       -7.662245    0.404012    0.019158
      9          6           0        0.139502    0.288376   -0.032585
     10          6           0        1.526654    0.342608   -0.021791
     11          6           0        2.292230   -0.830058    0.011135
     12          6           0        1.630069   -2.053820    0.008362
     13          6           0        0.248716   -2.117608   -0.008475
     14          1           0       -2.269160   -2.025145   -0.054765
     15          1           0       -5.087687    0.957958   -0.842213
     16          1           0       -5.089700    0.893471    0.925962
     17          1           0       -6.461135   -1.196074    0.843342
     18          1           0       -6.458501   -1.132006   -0.915568
     19          1           0       -7.675100    1.015542    0.924984
     20          1           0       -8.588248   -0.172685   -0.003689
     21          1           0       -7.671964    1.080373   -0.839390
     22          1           0       -0.436326    1.200425   -0.053361
     23          1           0       -0.243116   -3.084554   -0.005737
     24          6           0        3.800004   -0.847799    0.012937
     25          6           0        2.150305    1.722098   -0.009774
     26          1           0        2.201312   -2.972964    0.026784
     27          9           0        4.327011    0.068780    0.833240
     28          9           0        4.315953   -0.634318   -1.207466
     29          9           0        4.269683   -2.039409    0.416527
     30          9           0        1.284931    2.658353   -0.418238
     31          9           0        3.215098    1.804311   -0.816288
     32          9           0        2.548577    2.078825    1.219706
 ---------------------------------------------------------------------

 SCF Done:  E(RM062X) =  -1268.13125732     A.U. after    2 cycles

 The electronic state is 1-A.
 Alpha  occ. eigenvalues --  -25.28379 -25.28283 -25.28173 -25.28151 -25.27895
 Alpha  occ. eigenvalues --  -25.27843 -19.68121 -19.62238 -14.81089 -10.81213
 Alpha  occ. eigenvalues --  -10.81198 -10.71838 -10.62899 -10.60140 -10.60068
 Alpha  occ. eigenvalues --  -10.59372 -10.58069 -10.57577 -10.57368 -10.54287
 Alpha  occ. eigenvalues --  -10.53139  -1.47964  -1.47506  -1.38500  -1.38151
 Alpha  occ. eigenvalues --   -1.38019  -1.37849  -1.26286  -1.16359  -1.08764
 Alpha  occ. eigenvalues --   -1.00625  -0.91952  -0.90674  -0.89561  -0.83612
 Alpha  occ. eigenvalues --   -0.82201  -0.79777  -0.75606  -0.75006  -0.71227
 Alpha  occ. eigenvalues --   -0.70257  -0.70200  -0.69724  -0.69559  -0.69195
 Alpha  occ. eigenvalues --   -0.67923  -0.66638  -0.64119  -0.60630  -0.60023
 Alpha  occ. eigenvalues --   -0.58697  -0.58577  -0.58037  -0.57803  -0.57078
 Alpha  occ. eigenvalues --   -0.56121  -0.54743  -0.54558  -0.54254  -0.53314
 Alpha  occ. eigenvalues --   -0.53127  -0.53007  -0.51807  -0.51781  -0.51594
 Alpha  occ. eigenvalues --   -0.50925  -0.49697  -0.49640  -0.46967  -0.46555
 Alpha  occ. eigenvalues --   -0.45591  -0.44332  -0.43845  -0.41696  -0.41224
 Alpha  occ. eigenvalues --   -0.40643  -0.38791  -0.37968  -0.34660  -0.30549
 Alpha virt. eigenvalues --   -0.02637  -0.01100   0.00079   0.01726   0.02456
 Alpha virt. eigenvalues --    0.02630   0.03200   0.03733   0.04386   0.04617
 Alpha virt. eigenvalues --    0.05059   0.05155   0.06270   0.06626   0.06843

 Mulliken charges:
               1
     1  C   -1.074341
     2  N   -0.488954
     3  C    0.067978
     4  O   -0.298539
     5  O   -0.056413
     6  C   -0.292451
     7  C   -0.147008
     8  C   -1.044678
     9  C    0.278885
    10  C   -0.453901
    11  C   -0.856660
    12  C   -0.182238
    13  C   -0.102126
    14  H    0.430805
    15  H    0.276742
    16  H    0.276208
    17  H    0.262966
    18  H    0.263270
    19  H    0.265240
    20  H    0.278872
    21  H    0.265182
    22  H    0.342559
    23  H    0.266123
    24  C    0.881865
    25  C    0.980325
    26  H    0.302638
    27  F   -0.075186
    28  F   -0.042581
    29  F   -0.115819
    30  F   -0.104758
    31  F   -0.069566
    32  F   -0.034440
 Sum of Mulliken charges =  -0.00000

 Dipole moment (field-independent basis, Debye):
    X=             -7.1415    Y=             -5.0196    Z=             -0.0902  Tot=              8.7295
 Quadrupole moment (field-independent basis, Debye-Ang):
   XX=           -114.1782   YY=           -115.7632   ZZ=           -122.0813
   XY=              1.0351   XZ=              0.1473   YZ=             -0.1579

  Exact polarizability: 237.835  -5.408 171.705   0.259   0.255 110.859
 Approx polarizability: 215.466  -1.807 197.796   0.531   0.191 132.458

                      1                      2                      3
                      A                      A                      A
 Frequencies --     13.6615                28.0273                52.4801
 Red. masses --      5.1732                 3.9555                 6.7752
 Frc consts  --      0.0006                 0.0018                 0.0110
 IR Inten    --      1.5304                 1.1176                 0.1166

                      4                      5                      6
                      A                      A                      A
 Frequencies --     57.4278                69.1557                82.6819
 Red. masses --      5.5616                 4.4125                 2.7055
 Frc consts  --      0.0108                 0.0124                 0.0109
 IR Inten    --      0.0871                 0.8471                 3.0432

                      7                      8                      9
                      A                      A                      A
 Frequencies --     91.9289                99.3890               131.9688
 Red. masses --     18.3095                 4.9415                 6.2403
 Frc consts  --      0.0912                 0.0288                 0.0640
 IR Inten    --      0.0490                 0.1438                 1.0824

                     10                     11                     12
                      A                      A                      A
 Frequencies --    139.6275               170.9670               175.2360
 Red. masses --      7.3528                14.3400                 3.3947
 Frc consts  --      0.0845                 0.2470                 0.0614
 IR Inten    --      0.3171                 0.5038                 4.1679

                     13                     14                     15
                      A                      A                      A
 Frequencies --    206.1122               233.1060               238.7634
 Red. masses --      8.1368                 6.5393                 3.3013
 Frc consts  --      0.2037                 0.2094                 0.1109
 IR Inten    --      0.2634                 5.3928                 0.7336

                     16                     17                     18
                      A                      A                      A
 Frequencies --    243.4916               263.4070               319.1139
 Red. masses --      1.4314                 8.2578                 7.4718
 Frc consts  --      0.0500                 0.3376                 0.4483
 IR Inten    --      0.0574                 0.8565                 1.1158

                     19                     20                     21
                      A                      A                      A
 Frequencies --    341.0894               354.2876               388.6518
 Red. masses --     15.0457                 4.8203                 7.8403
 Frc consts  --      1.0313                 0.3565                 0.6978
 IR Inten    --      0.2371                21.2333                 3.2952

                     22                     23                     24
                      A                      A                      A
 Frequencies --    397.4493               417.4174               465.2010
 Red. masses --      6.2668                 4.8946                 7.6018
 Frc consts  --      0.5833                 0.5025                 0.9693
 IR Inten    --     20.4582                 2.7997                 4.4033

                     25                     26                     27
                      A                      A                      A
 Frequencies --    481.1093               506.3467               540.8804
 Red. masses --      6.3636                 6.6495                11.3411
 Frc consts  --      0.8678                 1.0045                 1.9548
 IR Inten    --      0.9329                18.7587                 2.9409

                     28                     29                     30
                      A                      A                      A
 Frequencies --    559.9698               573.8231               606.6994
 Red. masses --      1.1432                14.9291                 5.2237
 Frc consts  --      0.2112                 2.8963                 1.1329
 IR Inten    --     84.0524                 0.6867                23.0242

                     31                     32                     33
                      A                      A                      A
 Frequencies --    622.1987               655.9949               662.9425
 Red. masses --      8.8469                 5.4884                 7.9014
 Frc consts  --      2.0179                 1.3915                 2.0460
 IR Inten    --      0.8119                 2.5288                15.0594

                     34                     35                     36
                      A                      A                      A
 Frequencies --    684.4076               764.7725               767.3906
 Red. masses --      9.5007                 4.9117                 1.1382
 Frc consts  --      2.6220                 1.6926                 0.3949
 IR Inten    --     16.3344                 2.1002                 7.5063

                     37                     38                     39
                      A                      A                      A
 Frequencies --    775.3298               778.2392               791.5609
 Red. masses --      9.8429                10.7361                 7.7943
 Frc consts  --      3.4861                 3.8311                 2.8774
 IR Inten    --      4.9571                 8.4750                20.4116

                     40                     41                     42
                      A                      A                      A
 Frequencies --    802.6872               858.9873               907.9255
 Red. masses --      9.1274                 1.4796                 1.1544
 Frc consts  --      3.4649                 0.6432                 0.5607
 IR Inten    --      2.0563                57.1575                 2.7954

                     43                     44                     45
                      A                      A                      A
 Frequencies --    931.0758               941.3337               958.3483
 Red. masses --      1.8544                 1.4244                 4.2842
 Frc consts  --      0.9471                 0.7436                 2.3183
 IR Inten    --      1.6403                26.1057                49.7345

                     46                     47                     48
                      A                      A                      A
 Frequencies --    993.0686              1026.4571              1050.7009
 Red. masses --      1.3380                 7.3068                 6.4609
 Frc consts  --      0.7774                 4.5358                 4.2025
 IR Inten    --      3.2805                16.4368                76.8144

                     49                     50                     51
                      A                      A                      A
 Frequencies --   1077.3060              1120.6118              1134.9807
 Red. masses --      2.5080                 6.4710                 3.0150
 Frc consts  --      1.7150                 4.7878                 2.2883
 IR Inten    --      6.8986                73.2747               276.3048

                     52                     53                     54
                      A                      A                      A
 Frequencies --   1167.0717              1171.2178              1178.4979
 Red. masses --      3.0691                 2.9553                 7.3649
 Frc consts  --      2.4629                 2.3885                 6.0266
 IR Inten    --     88.2638                40.9075                12.5261

                     55                     56                     57
                      A                      A                      A
 Frequencies --   1195.5448              1205.1831              1214.3990
 Red. masses --      1.6604                 7.2700                 2.0763
 Frc consts  --      1.3983                 6.2215                 1.8041
 IR Inten    --      0.7048               581.2763               361.1544

                     58                     59                     60
                      A                      A                      A
 Frequencies --   1229.1566              1268.0904              1290.0838
 Red. masses --      9.1274                 2.6090                 2.8350
 Frc consts  --      8.1248                 2.4718                 2.7800
 IR Inten    --    310.8404               810.0764               207.0552

                     61                     62                     63
                      A                      A                      A
 Frequencies --   1294.7317              1317.0070              1329.7709
 Red. masses --      1.1819                 2.4020                 2.6548
 Frc consts  --      1.1674                 2.4547                 2.7659
 IR Inten    --      1.2744               203.7118               433.3076

                     64                     65                     66
                      A                      A                      A
 Frequencies --   1340.9565              1349.5311              1351.0752
 Red. masses --      1.0671                 2.1733                 2.1705
 Frc consts  --      1.1305                 2.3320                 2.3344
 IR Inten    --      1.1710               267.4874                38.2425

                     67                     68                     69
                      A                      A                      A
 Frequencies --   1377.5336              1432.3072              1446.7196
 Red. masses --      4.6742                 1.2765                 1.5141
 Frc consts  --      5.2259                 1.5430                 1.8671
 IR Inten    --    291.5051                 5.9919                29.1109

                     70                     71                     72
                      A                      A                      A
 Frequencies --   1481.1223              1503.8037              1518.7585
 Red. masses --      4.6822                 1.0627                 1.0368
 Frc consts  --      6.0518                 1.4160                 1.4090
 IR Inten    --    295.1875                 0.8911                11.9275

                     73                     74                     75
                      A                      A                      A
 Frequencies --   1521.5857              1535.0371              1561.1721
 Red. masses --      1.0877                 1.1002                 2.2520
 Frc consts  --      1.4837                 1.5275                 3.2339
 IR Inten    --      2.0794                32.3002                87.2603

                     76                     77                     78
                      A                      A                      A
 Frequencies --   1597.5254              1665.1308              1694.0489
 Red. masses --      2.8839                 5.7753                 5.9829
 Frc consts  --      4.3364                 9.4346                10.1162
 IR Inten    --    523.2252               198.8203                70.5657

                     79                     80                     81
                      A                      A                      A
 Frequencies --   1841.0940              3071.3412              3080.3838
 Red. masses --     10.3869                 1.0379                 1.0600
 Frc consts  --     20.7437                 5.7682                 5.9261
 IR Inten    --    379.3247                21.6065                11.8837

                     82                     83                     84
                      A                      A                      A
 Frequencies --   3093.8496              3114.2029              3136.5092
 Red. masses --      1.0575                 1.1043                 1.1055
 Frc consts  --      5.9639                 6.3099                 6.4079
 IR Inten    --     34.2314                 0.2435                 5.8997

                     85                     86                     87
                      A                      A                      A
 Frequencies --   3150.5016              3150.8554              3213.1248
 Red. masses --      1.1057                 1.1043                 1.0915
 Frc consts  --      6.4660                 6.4594                 6.6395
 IR Inten    --     48.4484                43.2977                 4.8230

                     88                     89                     90
                      A                      A                      A
 Frequencies --   3249.6675              3290.7052              3636.4444
 Red. masses --      1.0937                 1.0916                 1.0782
 Frc consts  --      6.8049                 6.9647                 8.4006
 IR Inten    --      0.2941                22.5598                77.4735

 - Thermochemistry -
 -------------------
 Temperature   298.150 Kelvin.  Pressure   1.00000 Atm.
 Atom     1 has atomic number  6 and mass  12.00000

 Molecular mass:   315.06940 amu.
 Principal axes and moments of inertia in atomic units:
                           1         2         3
     Eigenvalues --  2525.74260********************
           X            0.99999  -0.00341  -0.00012
           Y            0.00341   0.99999   0.00028
           Z            0.00012  -0.00028   1.00000
 This molecule is an asymmetric top.
 Rotational symmetry number  1.
 Warning -- assumption of classical behavior for rotation
           may cause significant error
 Rotational temperatures (Kelvin)      0.03429     0.00574     0.00511
 Rotational constants (GHZ):           0.71454     0.11957     0.10645
 Zero-point vibrational energy     603046.7 (Joules/Mol)
                                  144.13161 (Kcal/Mol)
 Warning -- explicit consideration of  30 degrees of freedom as
           vibrations may cause significant error
 Vibrational temperatures:     19.66    40.32    75.51    82.63    99.50
          (Kelvin)            118.96   132.27   143.00   189.87   200.89
                              245.98   252.13   296.55   335.39   343.53
                              350.33   378.98   459.13   490.75   509.74
                              559.18   571.84   600.57   669.32   692.21
                              728.52   778.21   805.67   825.60   872.90
                              895.20   943.83   953.83   984.71  1100.34
                             1104.10  1115.53  1119.71  1138.88  1154.89
                             1235.89  1306.30  1339.61  1354.37  1378.85
                             1428.80  1476.84  1511.72  1550.00  1612.31
                             1632.98  1679.15  1685.12  1695.59  1720.12
                             1733.99  1747.25  1768.48  1824.50  1856.14
                             1862.83  1894.88  1913.24  1929.33  1941.67
                             1943.89  1981.96  2060.77  2081.50  2131.00
                             2163.64  2185.15  2189.22  2208.57  2246.18
                             2298.48  2395.75  2437.36  2648.92  4418.97
                             4431.98  4451.35  4480.64  4512.73  4532.86
                             4533.37  4622.96  4675.54  4734.58  5232.03

 Zero-point correction=                           0.229688 (Hartree/Particle)
 Thermal correction to Energy=                    0.249279
 Thermal correction to Enthalpy=                  0.250223
 Thermal correction to Gibbs Free Energy=         0.178687
 Sum of electronic and zero-point Energies=          -1267.901569
 Sum of electronic and thermal Energies=             -1267.881979
 Sum of electronic and thermal Enthalpies=           -1267.881035
 Sum of electronic and thermal Free Energies=        -1267.952571

                     E (Thermal)             CV                S
                      KCal/Mol        Cal/Mol-Kelvin    Cal/Mol-Kelvin
 Total                  156.425             71.136            150.560
 Electronic               0.000              0.000              0.000
 Translational            0.889              2.981             43.139
 Rotational               0.889              2.981             34.823
 Vibrational            154.647             65.175             72.598
 Vibration     1          0.593              1.986              7.391
 Vibration     2          0.593              1.984              5.964
 Vibration     3          0.596              1.977              4.722
 Vibration     4          0.596              1.975              4.544
 Vibration     5          0.598              1.969              4.177
 Vibration     6          0.600              1.961              3.826
 Vibration     7          0.602              1.955              3.619
 Vibration     8          0.604              1.950              3.466
 Vibration     9          0.612              1.921              2.917
 Vibration    10          0.615              1.914              2.809
 Vibration    11          0.626              1.878              2.425
 Vibration    12          0.627              1.873              2.379
 Vibration    13          0.641              1.831              2.078
 Vibration    14          0.654              1.790              1.855
 Vibration    15          0.657              1.781              1.812
 Vibration    16          0.659              1.774              1.777
 Vibration    17          0.670              1.740              1.639
 Vibration    18          0.705              1.637              1.315
 Vibration    19          0.721              1.593              1.207
 Vibration    20          0.730              1.566              1.147
 Vibration    21          0.757              1.494              1.005
 Vibration    22          0.764              1.476              0.972
 Vibration    23          0.780              1.432              0.901
 Vibration    24          0.823              1.327              0.751
 Vibration    25          0.837              1.292              0.707
 Vibration    26          0.862              1.236              0.642
 Vibration    27          0.896              1.160              0.563
 Vibration    28          0.916              1.118              0.524
 Vibration    29          0.930              1.088              0.497
 Vibration    30          0.965              1.018              0.438

 Optimization completed.
    -- Stationary point found.
 Normal termination of Gaussian 09 at Thu Nov 14 17:00:24 2019.
