 Q-Chem 5.0, Q-Chem, Inc., Pleasanton, CA (2017)
 Q-Chem 5.0.0 for Intel X86 EM64T Linux

User input:
--------------------------------------------------------------
$molecule
  0 1
    C     -5.8165102221    1.5024757836    0.2212603451
    N     -4.5791064725    0.8589135928    0.1642559533
    C     -3.3378077155    1.4444796831    0.0808085345
    O     -3.1074249503    2.6246873298    0.0494415844
    O     -2.4064932612    0.4801661694    0.0391363875
    C     -1.0471361910    0.9380336952   -0.0493378016
    C     -0.1532739999   -0.2821582920   -0.0932824801
    C      1.3154860527    0.1222409537   -0.1870050800
    C     -6.9541491172    0.6899558620    0.2899922494
    C     -8.2250788661    1.2347241791    0.3458269295
    C     -8.3870746121    2.6273343332    0.3455348755
    C     -7.2522505671    3.4251563159    0.2717014226
    C     -5.9734453456    2.8878728966    0.2107852248
    H     -4.5779711915   -0.1505288053    0.1771641896
    H     -0.8317760910    1.5684931723    0.8167439900
    H     -0.9408663987    1.5520586648   -0.9468626421
    H     -0.4345210724   -0.8987901162   -0.9512051984
    H     -0.3268576954   -0.8832626467    0.8033291339
    H      1.5089473730    0.7092770821   -1.0880560087
    H      1.9614049074   -0.7558771273   -0.2192468860
    H      1.6171978610    0.7242534288    0.6734993705
    H     -6.8412039748   -0.3878111577    0.2915328773
    H     -5.1119629431    3.5353274358    0.1567335482
    C     -9.7328207716    3.3095359279    0.3812052674
    C     -9.3853925872    0.2675952419    0.4469490010
    H     -7.3638899367    4.5017996182    0.2684964863
    F    -10.5688581647    2.7450489931    1.2588093709
    F    -10.3362222839    3.2975689582   -0.8152764807
    F     -9.6101243373    4.5981137972    0.7342993170
    F     -9.0189592434   -0.9692559193    0.0732078339
    F    -10.4086768562    0.6201301961   -0.3335127550
    F     -9.8405213257    0.1679207535    1.7011414395

$end

$rem

    JOBTYPE               sp
    METHOD                CCSD(T)
    BASIS                 6-31+G*
    CC_BACKEND            XM

    MEM_TOTAL             60000
$end
--------------------------------------------------------------

             Standard Nuclear Orientation (Angstroms)
    I     Atom           X                Y                Z
 ----------------------------------------------------------------
    1      C       0.5870522429    -0.0761262356    -0.0110149652
    2      N       1.9133962109     0.3590758274    -0.0101923723
    3      C       3.0465043313    -0.4198580423    -0.0115099798
    4      O       3.0846229808    -1.6221120924    -0.0205852715
    5      O       4.1221917587     0.3812481983    -0.0010656893
    6      C       5.3925273306    -0.2907410257    -0.0011889557
    7      C       6.4727446606     0.7687348459     0.0195627763
    8      C       7.8598036846     0.1318313794     0.0196412749
    9      C      -0.4064784760     0.9096718072     0.0042782548
   10      C      -1.7498466237     0.5772656473     0.0088194235
   11      C      -2.1343412544    -0.7707934326    -0.0136826707
   12      C      -1.1409415553    -1.7418031260    -0.0233842772
   13      C       0.2092474748    -1.4182036443    -0.0234772364
   14      H       2.0768309968     1.3552308478     0.0001087218
   15      H       5.4571878431    -0.9195336924    -0.8924776828
   16      H       5.4455310072    -0.9422156742     0.8743920880
   17      H       6.3404911404     1.3946842107     0.9061644411
   18      H       6.3513676586     1.4181994691    -0.8515476975
   19      H       8.0032755467    -0.5070746366     0.8943677477
   20      H       8.6398281959     0.8938462909     0.0350393767
   21      H       8.0144486207    -0.4828852289    -0.8703729834
   22      H      -0.1212260928     1.9549894971     0.0210929096
   23      H       0.9565145851    -2.1965070723    -0.0337987530
   24      C      -3.5725643660    -1.2274698755     0.0121054314
   25      C      -2.7424688431     1.7202638470    -0.0033555866
   26      H      -1.4246377529    -2.7862741757    -0.0385867308
   27      F      -4.3516721863    -0.5087813031    -0.8029226204
   28      F      -4.1020355559    -1.1573764010     1.2411507238
   29      F      -3.6783812898    -2.5071355629    -0.3770234098
   30      F      -2.1618948889     2.8700004659     0.3771654263
   31      F      -3.7665592273     1.5111875580     0.8261250534
   32      F      -3.2411607162     1.9314705382    -1.2267827378
 ----------------------------------------------------------------

   16   -1261.7281989419      3.13E-09 Convergence criterion met
 Total energy in the final basis set = -1261.7281989419
 CCSD total energy           = -1264.90469185
 CCSD(T) total energy       = -1265.01796667

                    Orbital Energies (a.u.)
 --------------------------------------------------------------

 Alpha MOs
 -- Occupied --
-26.363 -26.359 -26.356 -26.356 -26.353 -26.350 -20.636 -20.573
-15.642 -11.532 -11.525 -11.441 -11.333 -11.306 -11.305 -11.290
-11.281 -11.281 -11.266 -11.245 -11.236  -1.746  -1.738  -1.648
 -1.644  -1.641  -1.637  -1.500  -1.392  -1.298  -1.204  -1.099
 -1.089  -1.077  -1.000  -0.976  -0.955  -0.901  -0.891  -0.853
 -0.836  -0.834  -0.833  -0.827  -0.823  -0.819  -0.781  -0.777
 -0.726  -0.721  -0.719  -0.715  -0.712  -0.712  -0.692  -0.679
 -0.673  -0.672  -0.662  -0.656  -0.653  -0.649  -0.647  -0.647
 -0.626  -0.618  -0.605  -0.592  -0.569  -0.557  -0.554  -0.544
 -0.533  -0.508  -0.507  -0.484  -0.482  -0.480  -0.383  -0.347

          Ground-State Mulliken Net Atomic Charges

     Atom                 Charge (a.u.)
  ----------------------------------------
      1 C                    -0.005978
      2 N                    -0.934394
      3 C                     0.681224
      4 O                    -0.581479
      5 O                    -0.476205
      6 C                     0.039862
      7 C                    -0.278617
      8 C                    -0.691680
      9 C                    -0.666886
     10 C                    -0.778751
     11 C                    -0.753244
     12 C                    -0.020044
     13 C                     0.171249
     14 H                     0.501020
     15 H                     0.212109
     16 H                     0.212288
     17 H                     0.205107
     18 H                     0.205073
     19 H                     0.196579
     20 H                     0.205212
     21 H                     0.196578
     22 H                     0.271012
     23 H                     0.319607
     24 C                     1.807227
     25 C                     1.994927
     26 H                     0.283248
     27 F                    -0.379493
     28 F                    -0.356959
     29 F                    -0.427633
     30 F                    -0.430270
     31 F                    -0.370195
     32 F                    -0.350494
  ----------------------------------------
  Sum of atomic charges =     0.000000

                    Cartesian Multipole Moments
 -----------------------------------------------------------------
    Charge (ESU x 10^10)
                -0.0000
    Dipole Moment (Debye)
         X       6.5022      Y       1.1715      Z       0.0071
       Tot       6.6069
    Quadrupole Moments (Debye-Ang)
        XX    -117.8112     XY       7.4966     YY    -122.1260
        XZ       0.1661     YZ       0.1012     ZZ    -122.2728

 Total job time:  148896.47s(wall), 940367.61s(cpu)
        *  Thank you very much for using Q-Chem.  Have a nice day.  *
