 Gaussian 09, Revision E.01,
 Gaussian 09:  ES64L-G09RevE.01 30-Nov-2015

 -------------------------------------------------------------
 # MP2/Gen 5D SCF=Tight INT(grid=ultrafine) maxdisk=3489660928
 -------------------------------------------------------------

 --------------------
 NM2CA.MP2_GTMP2LARGE
 --------------------
 Symbolic Z-matrix:
 Charge =  0 Multiplicity = 1

                         Standard orientation:
 ---------------------------------------------------------------------
 Center     Atomic      Atomic             Coordinates (Angstroms)
 Number     Number       Type             X           Y           Z
 ---------------------------------------------------------------------
      1          6           0        0.510894   -0.952751   -0.013891
      2          7           0        1.900103   -1.087861   -0.019826
      3          6           0        2.841286   -0.084827   -0.005673
      4          8           0        2.622845    1.097420    0.006315
      5          8           0        4.062995   -0.639152   -0.007610
      6          6           0        5.160562    0.288851    0.004933
      7          6           0        6.442322   -0.515381    0.002094
      8          6           0        7.661199    0.403209    0.014100
      9          6           0       -0.139634    0.285414   -0.025189
     10          6           0       -1.526917    0.343048   -0.018522
     11          6           0       -2.295005   -0.827718    0.010568
     12          6           0       -1.635329   -2.052406    0.011787
     13          6           0       -0.253697   -2.119676   -0.000161
     14          1           0        2.273384   -2.025723   -0.023219
     15          1           0        5.077848    0.918673    0.893893
     16          1           0        5.084170    0.934995   -0.872831
     17          1           0        6.457785   -1.157833   -0.882478
     18          1           0        6.452016   -1.173182    0.875404
     19          1           0        7.675742    1.054962   -0.862761
     20          1           0        8.586181   -0.174540    0.012362
     21          1           0        7.669711    1.039982    0.901979
     22          1           0        0.438986    1.195872   -0.044829
     23          1           0        0.235210   -3.088367    0.005144
     24          6           0       -3.804923   -0.844213    0.004577
     25          6           0       -2.146762    1.726140   -0.002030
     26          1           0       -2.211261   -2.968380    0.030794
     27          9           0       -4.331326    0.064624    0.830141
     28          9           0       -4.271741   -2.041247    0.397109
     29          9           0       -4.308735   -0.623326   -1.216894
     30          9           0       -1.273523    2.657378   -0.404697
     31          9           0       -2.541966    2.073184    1.229140
     32          9           0       -3.207285    1.813197   -0.810341
 ---------------------------------------------------------------------

 SCF Done:  E(RHF) =  -1262.11706388     A.U. after   15 cycles
 E2 =    -0.4039267765D+01 EUMP2 =    -0.12661563316465D+04

 The electronic state is 1-A.
 Alpha  occ. eigenvalues --  -26.33977 -26.33826 -26.33690 -26.33649 -26.33429
 Alpha  occ. eigenvalues --  -26.33352 -20.62073 -20.55429 -15.62901 -11.51277
 Alpha  occ. eigenvalues --  -11.51275 -11.42887 -11.32625 -11.29947 -11.29383
 Alpha  occ. eigenvalues --  -11.28215 -11.27604 -11.26809 -11.26217 -11.23961
 Alpha  occ. eigenvalues --  -11.23014  -1.73477  -1.72997  -1.63751  -1.63425
 Alpha  occ. eigenvalues --   -1.63264  -1.63102  -1.49384  -1.38630  -1.29316
 Alpha  occ. eigenvalues --   -1.19863  -1.09599  -1.08307  -1.07217  -0.99233
 Alpha  occ. eigenvalues --   -0.97415  -0.95071  -0.89633  -0.88854  -0.84327
 Alpha  occ. eigenvalues --   -0.83084  -0.82810  -0.82582  -0.82157  -0.81762
 Alpha  occ. eigenvalues --   -0.81272  -0.79034  -0.76394  -0.72480  -0.71526
 Alpha  occ. eigenvalues --   -0.71368  -0.71313  -0.70811  -0.70771  -0.68625
 Alpha  occ. eigenvalues --   -0.67923  -0.66605  -0.66355  -0.65833  -0.64960
 Alpha  occ. eigenvalues --   -0.64672  -0.64546  -0.64507  -0.64452  -0.62702
 Alpha  occ. eigenvalues --   -0.61506  -0.59917  -0.59052  -0.56696  -0.55446
 Alpha  occ. eigenvalues --   -0.55162  -0.53874  -0.53044  -0.50671  -0.50391
 Alpha  occ. eigenvalues --   -0.48346  -0.48100  -0.47791  -0.38176  -0.34635
 Alpha virt. eigenvalues --    0.02663   0.03719   0.04894   0.05332   0.05496
 Alpha virt. eigenvalues --    0.06525   0.07094   0.07594   0.08167   0.08499
 Alpha virt. eigenvalues --    0.09029   0.09232   0.09934   0.10383   0.10772

 Mulliken charges:
               1
     1  C   -0.365352
     2  N   -0.436189
     3  C    0.470626
     4  O   -0.446782
     5  O   -0.209212
     6  C    0.121921
     7  C    0.270692
     8  C   -0.446116
     9  C   -0.298032
    10  C    0.120463
    11  C   -0.931135
    12  C   -0.107932
    13  C   -0.097628
    14  H    0.227650
    15  H    0.104214
    16  H    0.104140
    17  H    0.047788
    18  H    0.047785
    19  H    0.058783
    20  H    0.090461
    21  H    0.058743
    22  H    0.271513
    23  H    0.123726
    24  C    1.331600
    25  C    1.302415
    26  H    0.198359
    27  F   -0.272549
    28  F   -0.296010
    29  F   -0.249981
    30  F   -0.276067
    31  F   -0.247063
    32  F   -0.270832
 Sum of Mulliken charges =  -0.00000

 Dipole moment (field-independent basis, Debye):
    X=              6.4860    Y=             -4.4896    Z=             -0.0309  Tot=              7.8883
 Quadrupole moment (field-independent basis, Debye-Ang):
   XX=           -114.2337   YY=           -116.6636   ZZ=           -121.4532
   XY=             -1.2366   XZ=             -0.0496   YZ=             -0.1293

 Normal termination of Gaussian 09 at Mon Dec  9 11:56:42 2019.
