 Gaussian 16, Revision C.01,

 ----------------------------------------------------------------------
 # M062X/6-311+G* SCF=Tight INT(grid=ultrafine) OPT=CalcFC IOP(2/17=4)
 EmpiricalDispersion=GD3 MaxDisk=10000MB
 ----------------------------------------------------------------------

 ------------------------------------
 NM3CA_carboxy.M062X_6-311pGd_opt_GD3
 ------------------------------------
 Symbolic Z-matrix:
 Charge = -1 Multiplicity = 1

 SCF Done:  E(RM062X) =  -1658.47352414     A.U. after   17 cycles
 SCF Done:  E(RM062X) =  -1658.49641929     A.U. after   15 cycles
 SCF Done:  E(RM062X) =  -1658.52488262     A.U. after   14 cycles
 SCF Done:  E(RM062X) =  -1658.52858040     A.U. after   14 cycles
 SCF Done:  E(RM062X) =  -1658.52414684     A.U. after   15 cycles
 SCF Done:  E(RM062X) =  -1658.53003686     A.U. after   14 cycles
 SCF Done:  E(RM062X) =  -1658.52901752     A.U. after   16 cycles
 SCF Done:  E(RM062X) =  -1658.53029576     A.U. after   14 cycles
 SCF Done:  E(RM062X) =  -1658.53020233     A.U. after   13 cycles
 SCF Done:  E(RM062X) =  -1658.53043074     A.U. after   13 cycles
 SCF Done:  E(RM062X) =  -1658.53060826     A.U. after   14 cycles
 SCF Done:  E(RM062X) =  -1658.53064386     A.U. after   14 cycles
 SCF Done:  E(RM062X) =  -1658.53064448     A.U. after   11 cycles
 SCF Done:  E(RM062X) =  -1658.53064403     A.U. after   10 cycles
 SCF Done:  E(RM062X) =  -1658.53064513     A.U. after   11 cycles
 SCF Done:  E(RM062X) =  -1658.53064509     A.U. after   11 cycles
 SCF Done:  E(RM062X) =  -1658.53064529     A.U. after   11 cycles
 SCF Done:  E(RM062X) =  -1658.53064530     A.U. after    9 cycles
 SCF Done:  E(RM062X) =  -1658.53064531     A.U. after    9 cycles
 Optimization completed on the basis of negligible forces.
    -- Stationary point found.
 Normal termination of Gaussian 16 at Mon Mar 22 13:44:37 2021.
 Gaussian 16:  ES64L-G16RevC.01  3-Jul-2019

 ----------------------------------------------------------------------
 # M062X/6-311+G* SCF=Tight INT(grid=ultrafine) EmpiricalDispersion=GD3
  Freq=Noraman MaxDisk=10000MB geom=check guess=read IOP(2/17=4)
 ----------------------------------------------------------------------

 ------------------------------------
 NM3CA_carboxy.M062X_6-311pGd_opt_GD3
 ------------------------------------
 Structure from the checkpoint file:  "NM3CA_carboxy.M062X_6-311pGd_opt_GD3.chk"
 Charge = -1 Multiplicity = 1

                         Standard orientation:
 ---------------------------------------------------------------------
 Center     Atomic      Atomic             Coordinates (Angstroms)
 Number     Number       Type             X           Y           Z
 ---------------------------------------------------------------------
      1          6           0        0.668287   -0.038198   -0.049001
      2          7           0       -0.684473   -0.363226   -0.062277
      3          6           0       -1.186664   -1.620294   -0.123696
      4          8           0       -0.575517   -2.668526   -0.191459
      5          8           0       -2.537099   -1.569151   -0.105803
      6          6           0       -3.200772   -2.823426   -0.149404
      7          6           0       -4.690070   -2.543636   -0.121932
      8          6           0       -5.498313   -3.837421   -0.157693
      9          6           0        1.700515   -0.976619    0.075321
     10          6           0        3.019029   -0.533600    0.102536
     11          6           0        3.354521    0.808994    0.010061
     12          6           0        2.308296    1.716488   -0.115963
     13          6           0        0.983395    1.330120   -0.152525
     14          1           0       -1.380442    0.434018    0.042024
     15          1           0       -2.892491   -3.433172    0.705990
     16          1           0       -2.911201   -3.363340   -1.056514
     17          1           0       -4.943181   -1.907300   -0.973982
     18          1           0       -4.922147   -1.966820    0.777039
     19          1           0       -5.283631   -4.414207   -1.061684
     20          1           0       -6.571133   -3.635675   -0.140484
     21          1           0       -5.266725   -4.473277    0.701361
     22          1           0        1.471887   -2.029103    0.151395
     23         17           0        2.700926    3.417514   -0.239602
     24          1           0        0.186590    2.065704   -0.283696
     25          6           0        4.107506   -1.559652    0.183223
     26          1           0        4.382716    1.143654    0.036939
     27          9           0        4.334368   -2.157825   -1.003958
     28          9           0        5.285847   -1.035296    0.568490
     29          9           0        3.823418   -2.547092    1.048867
     30          8           0       -1.437922    3.272414   -0.702902
     31          8           0       -2.457350    1.586054    0.365468
     32          6           0       -2.391340    2.762283   -0.090346
     33          6           0       -3.621479    3.659508    0.148924
     34          6           0       -4.796121    2.959112    0.818994
     35          1           0       -3.908479    4.075775   -0.821673
     36          1           0       -3.280976    4.512214    0.745752
     37          1           0       -5.135810    2.113783    0.217461
     38          1           0       -5.639295    3.642061    0.967262
     39          1           0       -4.500421    2.554178    1.787978
 ---------------------------------------------------------------------

 SCF Done:  E(RM062X) =  -1658.53064531     A.U. after    2 cycles

 The electronic state is 1-A.
 Alpha  occ. eigenvalues -- -102.57584 -25.19142 -25.18789 -25.18498 -19.55840
 Alpha  occ. eigenvalues --  -19.49758 -19.42934 -19.41985 -14.65884 -10.71224
 Alpha  occ. eigenvalues --  -10.58966 -10.51153 -10.50155 -10.50097 -10.48853
 Alpha  occ. eigenvalues --  -10.47916 -10.46387 -10.45858 -10.45464 -10.45280
 Alpha  occ. eigenvalues --  -10.44460 -10.40595 -10.40407  -9.71856  -7.44362
 Alpha  occ. eigenvalues --   -7.43704  -7.43686  -1.38107  -1.28857  -1.28347
 Alpha  occ. eigenvalues --   -1.13806  -1.03713  -1.01666  -0.94871  -0.91956
 Alpha  occ. eigenvalues --   -0.89931  -0.85077  -0.81429  -0.78332  -0.74405
 Alpha  occ. eigenvalues --   -0.73702  -0.71659  -0.70603  -0.63789  -0.63343
 Alpha  occ. eigenvalues --   -0.60722  -0.60424  -0.59967  -0.59205  -0.56168
 Alpha  occ. eigenvalues --   -0.54789  -0.52448  -0.49394  -0.49082  -0.48803
 Alpha  occ. eigenvalues --   -0.48138  -0.47670  -0.45522  -0.45146  -0.44413
 Alpha  occ. eigenvalues --   -0.44016  -0.43846  -0.42940  -0.42513  -0.41129
 Alpha  occ. eigenvalues --   -0.40737  -0.40274  -0.39189  -0.39155  -0.38885
 Alpha  occ. eigenvalues --   -0.37145  -0.36669  -0.35680  -0.35229  -0.34916
 Alpha  occ. eigenvalues --   -0.33127  -0.32717  -0.32645  -0.32179  -0.31629
 Alpha  occ. eigenvalues --   -0.31203  -0.29690  -0.27993  -0.27741  -0.27455
 Alpha  occ. eigenvalues --   -0.27237  -0.25641  -0.20953  -0.18278  -0.18181
 Alpha  occ. eigenvalues --   -0.17436  -0.16777
 Alpha virt. eigenvalues --    0.08256   0.09699   0.10165   0.10246   0.10779
 Alpha virt. eigenvalues --    0.11130   0.11203   0.11554   0.11795   0.12780
 Alpha virt. eigenvalues --    0.13237   0.13606   0.13863   0.14167   0.14354

 Mulliken charges:
               1
     1  C   -0.880401
     2  N   -0.552484
     3  C   -0.101898
     4  O   -0.340530
     5  O   -0.006408
     6  C   -0.262018
     7  C   -0.156526
     8  C   -1.085762
     9  C   -0.286143
    10  C   -0.029479
    11  C   -0.715047
    12  C    0.639635
    13  C   -0.549577
    14  H    0.570071
    15  H    0.247900
    16  H    0.242771
    17  H    0.263827
    18  H    0.267707
    19  H    0.249639
    20  H    0.260147
    21  H    0.249453
    22  H    0.316664
    23  Cl   0.404980
    24  H    0.423111
    25  C    0.741692
    26  H    0.280989
    27  F   -0.069406
    28  F   -0.145981
    29  F   -0.095456
    30  O   -0.431600
    31  O   -0.445712
    32  C    0.096901
    33  C   -0.365634
    34  C   -0.958014
    35  H    0.244026
    36  H    0.244191
    37  H    0.253800
    38  H    0.224147
    39  H    0.256426
 Sum of Mulliken charges =  -1.00000

 Dipole moment (field-independent basis, Debye):
    X=              0.2794    Y=             -5.3422    Z=              0.8331  Tot=              5.4140
 Quadrupole moment (field-independent basis, Debye-Ang):
   XX=           -179.5435   YY=           -185.5806   ZZ=           -148.7405
   XY=             19.6821   XZ=              1.4077   YZ=              4.0134

  Exact polarizability:     258.310      17.196     238.774      -3.205      -5.378     134.305
 Approx polarizability:     264.983      14.017     276.603      -2.246      -9.371     178.415

                      1                      2                      3
                      A                      A                      A
 Frequencies --     10.7380                18.9059                23.1074
 Red. masses --      4.4937                16.3735                 5.1470
 Frc consts  --      0.0003                 0.0034                 0.0016
 IR Inten    --      0.4602                 0.1524                 1.0315

                      4                      5                      6
                      A                      A                      A
 Frequencies --     25.7078                30.6332                35.9434
 Red. masses --      5.6730                 4.0225                 2.9309
 Frc consts  --      0.0022                 0.0022                 0.0022
 IR Inten    --      0.5571                 1.3933                 0.9532

                      7                      8                      9
                      A                      A                      A
 Frequencies --     41.1502                56.6668                66.5209
 Red. masses --      2.9485                 3.4353                 5.3119
 Frc consts  --      0.0029                 0.0065                 0.0138
 IR Inten    --      0.9434                 0.6198                 3.8707

                     10                     11                     12
                      A                      A                      A
 Frequencies --     71.4835                82.6682                96.7229
 Red. masses --      5.2997                 4.3148                 5.0078
 Frc consts  --      0.0160                 0.0174                 0.0276
 IR Inten    --      2.5827                 0.6685                 5.3690

                     13                     14                     15
                      A                      A                      A
 Frequencies --    117.3473               128.6497               135.9993
 Red. masses --      9.3201                 6.7089                 5.5861
 Frc consts  --      0.0756                 0.0654                 0.0609
 IR Inten    --      9.9166                 0.7286                17.9303

                     16                     17                     18
                      A                      A                      A
 Frequencies --    164.4656               168.5867               197.2896
 Red. masses --      4.8199                 5.1400                 5.5930
 Frc consts  --      0.0768                 0.0861                 0.1283
 IR Inten    --      3.1598                 3.0264                 0.2244

                     19                     20                     21
                      A                      A                      A
 Frequencies --    218.8557               232.8653               238.0554
 Red. masses --      1.1205                 7.3344                 1.1296
 Frc consts  --      0.0316                 0.2343                 0.0377
 IR Inten    --      0.5623                 3.9239                 0.0288

                     22                     23                     24
                      A                      A                      A
 Frequencies --    257.1497               265.0258               311.4136
 Red. masses --      5.2007                 5.0962                 4.1630
 Frc consts  --      0.2026                 0.2109                 0.2379
 IR Inten    --      2.3388                 0.4312                25.1685

                     25                     26                     27
                      A                      A                      A
 Frequencies --    323.8558               340.7701               360.5374
 Red. masses --     11.3799                 8.1182                 7.0686
 Frc consts  --      0.7032                 0.5554                 0.5414
 IR Inten    --      1.4155                 2.4371                 7.1595

                     28                     29                     30
                      A                      A                      A
 Frequencies --    369.6056               448.5198               454.9187
 Red. masses --      6.4941                 9.1829                 5.0278
 Frc consts  --      0.5227                 1.0884                 0.6131
 IR Inten    --     37.6155                 7.0086                 1.2575

                     31                     32                     33
                      A                      A                      A
 Frequencies --    485.4458               508.8843               519.0230
 Red. masses --      6.4783                 5.4605                11.2278
 Frc consts  --      0.8995                 0.8331                 1.7820
 IR Inten    --      2.2532                 7.4326                 1.5614

                     34                     35                     36
                      A                      A                      A
 Frequencies --    580.8212               586.1009               600.6175
 Red. masses --      5.9017                 1.9692                10.3451
 Frc consts  --      1.1730                 0.3985                 2.1988
 IR Inten    --      0.3618                 2.1123                 0.2404

                     37                     38                     39
                      A                      A                      A
 Frequencies --    654.1029               659.9448               663.2390
 Red. masses --      5.5103                 6.2042                 5.4750
 Frc consts  --      1.3891                 1.5920                 1.4190
 IR Inten    --      6.8339                 0.4495                58.1184

                     40                     41                     42
                      A                      A                      A
 Frequencies --    712.1934               715.2368               761.2759
 Red. masses --      2.8008                12.5299                 1.0927
 Frc consts  --      0.8370                 3.7766                 0.3731
 IR Inten    --     11.3695                34.3857                 2.7829

                     43                     44                     45
                      A                      A                      A
 Frequencies --    781.7101               802.1233               821.3781
 Red. masses --      7.9437                 9.4402                 1.4631
 Frc consts  --      2.8600                 3.5786                 0.5816
 IR Inten    --     51.0119                15.6359                 7.0073

                     46                     47                     48
                      A                      A                      A
 Frequencies --    846.9862               872.6304               881.3901
 Red. masses --     11.5792                 1.4431                 4.0345
 Frc consts  --      4.8942                 0.6474                 1.8466
 IR Inten    --     46.2827                26.6496                50.9455

                     49                     50                     51
                      A                      A                      A
 Frequencies --    902.4406               924.1003               926.2348
 Red. masses --      1.1509                 1.6739                 1.4777
 Frc consts  --      0.5522                 0.8422                 0.7469
 IR Inten    --      2.2336                12.9607                23.2456

                     52                     53                     54
                      A                      A                      A
 Frequencies --    970.3068              1003.4199              1011.7250
 Red. masses --      5.4301                 1.9861                 1.9272
 Frc consts  --      3.0121                 1.1782                 1.1623
 IR Inten    --    120.9957                23.1951                11.5520

                     55                     56                     57
                      A                      A                      A
 Frequencies --   1017.0433              1027.1717              1075.0212
 Red. masses --      1.8513                 6.0573                 2.3116
 Frc consts  --      1.1283                 3.7655                 1.5740
 IR Inten    --      6.4981                 1.7127                 5.5488

                     58                     59                     60
                      A                      A                      A
 Frequencies --   1086.5115              1105.6264              1108.9421
 Red. masses --      1.1664                 1.7905                 2.3692
 Frc consts  --      0.8113                 1.2896                 1.7166
 IR Inten    --     67.4080                 1.1304                 9.4653

                     61                     62                     63
                      A                      A                      A
 Frequencies --   1136.4565              1157.6160              1165.9691
 Red. masses --      1.7458                 4.0490                 2.7464
 Frc consts  --      1.3284                 3.1969                 2.1998
 IR Inten    --     48.1280                48.6034                26.3397

                     64                     65                     66
                      A                      A                      A
 Frequencies --   1167.3844              1179.3882              1196.4857
 Red. masses --      2.4701                 9.8210                 1.6730
 Frc consts  --      1.9833                 8.0486                 1.4111
 IR Inten    --     63.9177               271.5167                 1.0352

                     67                     68                     69
                      A                      A                      A
 Frequencies --   1212.8372              1286.4539              1287.6337
 Red. masses --      5.8302                 3.0743                 1.2500
 Frc consts  --      5.0529                 2.9977                 1.2211
 IR Inten    --    278.9799               273.5371                27.7365

                     70                     71                     72
                      A                      A                      A
 Frequencies --   1288.0826              1290.4696              1327.7065
 Red. masses --      1.1953                 2.5115                 1.6528
 Frc consts  --      1.1685                 2.4642                 1.7166
 IR Inten    --      4.2380               419.8848                83.3462

                     73                     74                     75
                      A                      A                      A
 Frequencies --   1330.1922              1332.4490              1344.6617
 Red. masses --      1.5963                 1.0859                 1.9921
 Frc consts  --      1.6641                 1.1360                 2.1222
 IR Inten    --    239.8226                13.4541               163.6301

                     76                     77                     78
                      A                      A                      A
 Frequencies --   1356.4475              1402.0103              1411.5486
 Red. masses --      2.4089                 3.9099                 1.4642
 Frc consts  --      2.6114                 4.5281                 1.7188
 IR Inten    --    333.8853               294.5984                49.4445

                     79                     80                     81
                      A                      A                      A
 Frequencies --   1425.0854              1444.7410              1449.3545
 Red. masses --      1.2710                 3.3365                 1.7512
 Frc consts  --      1.5208                 4.1032                 2.1674
 IR Inten    --      5.5132               317.9299                47.4581

                     82                     83                     84
                      A                      A                      A
 Frequencies --   1484.7048              1489.0252              1507.2051
 Red. masses --      1.1525                 4.0719                 1.0386
 Frc consts  --      1.4969                 5.3192                 1.3901
 IR Inten    --      1.0357               109.6954                 5.1807

                     85                     86                     87
                      A                      A                      A
 Frequencies --   1509.0239              1519.2094              1523.0062
 Red. masses --      1.0645                 1.1103                 1.0424
 Frc consts  --      1.4282                 1.5099                 1.4245
 IR Inten    --      2.5388                53.8007                 8.9796

                     88                     89                     90
                      A                      A                      A
 Frequencies --   1523.5840              1526.3792              1541.2866
 Red. masses --      2.8297                 1.0888                 1.0957
 Frc consts  --      3.8701                 1.4946                 1.5336
 IR Inten    --    177.0517                 9.5986                 7.4441

                     91                     92                     93
                      A                      A                      A
 Frequencies --   1649.4039              1658.3972              1688.7141
 Red. masses --      4.3089                 6.3548                 7.2338
 Frc consts  --      6.9067                10.2974                12.1543
 IR Inten    --     24.2685                91.4889               630.7649

                     94                     95                     96
                      A                      A                      A
 Frequencies --   1706.7752              1798.4250              2655.2792
 Red. masses --      1.7796                 8.1719                 1.1259
 Frc consts  --      3.0544                15.5726                 4.6770
 IR Inten    --    596.8032               295.5936              2402.5511

                     97                     98                     99
                      A                      A                      A
 Frequencies --   3053.0133              3060.1176              3064.5344
 Red. masses --      1.0447                 1.0387                 1.0556
 Frc consts  --      5.7374                 5.7306                 5.8408
 IR Inten    --     71.9304                17.3579                47.9789

                    100                    101                    102
                      A                      A                      A
 Frequencies --   3067.7177              3085.7826              3098.4586
 Red. masses --      1.0602                 1.0607                 1.1042
 Frc consts  --      5.8785                 5.9508                 6.2456
 IR Inten    --     24.6538                24.6145                 1.6306

                    103                    104                    105
                      A                      A                      A
 Frequencies --   3098.5203              3108.8431              3114.7179
 Red. masses --      1.1024                 1.0991                 1.1039
 Frc consts  --      6.2360                 6.2587                 6.3096
 IR Inten    --     26.6733               330.1353                 0.5621

                    106                    107                    108
                      A                      A                      A
 Frequencies --   3125.3624              3136.3975              3139.1354
 Red. masses --      1.0942                 1.1010                 1.1053
 Frc consts  --      6.2973                 6.3810                 6.4171
 IR Inten    --     40.8384                39.7807                61.0847

                    109                    110                    111
                      A                      A                      A
 Frequencies --   3148.6357              3253.4470              3276.8427
 Red. masses --      1.1018                 1.0922                 1.0914
 Frc consts  --      6.4359                 6.8117                 6.9047
 IR Inten    --     39.0816                 0.1431                10.0467

 - Thermochemistry -
 -------------------
 Temperature   298.150 Kelvin.  Pressure   1.00000 Atm.
 Atom     1 has atomic number  6 and mass  12.00000

 Molecular mass:   354.07200 amu.
 Principal axes and moments of inertia in atomic units:
                           1         2         3
     Eigenvalues --  7457.63255********************
           X            0.99954   0.03025  -0.00286
           Y           -0.03023   0.99952   0.00667
           Z            0.00306  -0.00658   0.99997
 This molecule is an asymmetric top.
 Rotational symmetry number  1.
 Warning -- assumption of classical behavior for rotation
           may cause significant error
 Rotational temperatures (Kelvin)      0.01161     0.00628     0.00419
 Rotational constants (GHZ):           0.24200     0.13094     0.08731
 Zero-point vibrational energy     769861.1 (Joules/Mol)
                                  184.00122 (Kcal/Mol)
 Warning -- explicit consideration of  36 degrees of freedom as
           vibrations may cause significant error
 Vibrational temperatures:     15.45    27.20    33.25    36.99    44.07
          (Kelvin)             51.71    59.21    81.53    95.71   102.85
                              118.94   139.16   168.84   185.10   195.67
                              236.63   242.56   283.86   314.88   335.04
                              342.51   369.98   381.31   448.05   465.96
                              490.29   518.73   531.78   645.32   654.53
                              698.45   732.17   746.76   835.67   843.27
                              864.15   941.11   949.51   954.25  1024.69
                             1029.07  1095.31  1124.71  1154.08  1181.78
                             1218.62  1255.52  1268.12  1298.41  1329.57
                             1332.65  1396.06  1443.70  1455.65  1463.30
                             1477.87  1546.72  1563.25  1590.75  1595.52
                             1635.11  1665.55  1677.57  1679.61  1696.88
                             1721.48  1745.00  1850.92  1852.62  1853.26
                             1856.70  1910.27  1913.85  1917.10  1934.67
                             1951.63  2017.18  2030.90  2050.38  2078.66
                             2085.30  2136.16  2142.38  2168.53  2171.15
                             2185.80  2191.27  2192.10  2196.12  2217.57
                             2373.12  2386.06  2429.68  2455.67  2587.53
                             3820.35  4392.61  4402.83  4409.18  4413.76
                             4439.75  4457.99  4458.08  4472.93  4481.38
                             4496.70  4512.58  4516.52  4530.18  4680.98
                             4714.65

 Zero-point correction=                           0.293225 (Hartree/Particle)
 Thermal correction to Energy=                    0.317914
 Thermal correction to Enthalpy=                  0.318858
 Thermal correction to Gibbs Free Energy=         0.231333
 Sum of electronic and zero-point Energies=          -1658.237421
 Sum of electronic and thermal Energies=             -1658.212732
 Sum of electronic and thermal Enthalpies=           -1658.211788
 Sum of electronic and thermal Free Energies=        -1658.299312

                     E (Thermal)             CV                S
                      KCal/Mol        Cal/Mol-Kelvin    Cal/Mol-Kelvin
 Total                  199.494             84.709            184.211
 Electronic               0.000              0.000              0.000
 Translational            0.889              2.981             43.487
 Rotational               0.889              2.981             36.006
 Vibrational            197.716             78.748            104.719
 Vibration     1          0.593              1.987              7.870
 Vibration     2          0.593              1.986              6.746
 Vibration     3          0.593              1.985              6.347
 Vibration     4          0.593              1.985              6.136
 Vibration     5          0.594              1.984              5.788
 Vibration     6          0.594              1.982              5.471
 Vibration     7          0.594              1.981              5.203
 Vibration     8          0.596              1.975              4.570
 Vibration     9          0.598              1.970              4.254
 Vibration    10          0.598              1.968              4.112
 Vibration    11          0.600              1.961              3.827
 Vibration    12          0.603              1.952              3.519
 Vibration    13          0.608              1.935              3.144
 Vibration    14          0.611              1.925              2.966
 Vibration    15          0.614              1.917              2.859
 Vibration    16          0.623              1.886              2.498
 Vibration    17          0.625              1.881              2.451
 Vibration    18          0.637              1.844              2.158
 Vibration    19          0.647              1.812              1.969
 Vibration    20          0.654              1.791              1.857
 Vibration    21          0.656              1.782              1.817
 Vibration    22          0.667              1.751              1.681
 Vibration    23          0.671              1.737              1.628
 Vibration    24          0.700              1.652              1.355
 Vibration    25          0.708              1.628              1.291
 Vibration    26          0.720              1.594              1.209
 Vibration    27          0.735              1.554              1.120
 Vibration    28          0.742              1.535              1.081
 Vibration    29          0.808              1.364              0.800
 Vibration    30          0.813              1.350              0.781
 Vibration    31          0.842              1.282              0.696
 Vibration    32          0.864              1.230              0.636
 Vibration    33          0.874              1.208              0.612
 Vibration    34          0.938              1.073              0.484
 Vibration    35          0.943              1.061              0.474
 Vibration    36          0.959              1.030              0.449

 Optimization completed.
    -- Stationary point found.
 Normal termination of Gaussian 16 at Mon Mar 22 21:31:49 2021.
