 Gaussian 16, Revision C.01,

 ----------------------------------------------------------------------
 # M062X/6-311+G* SCF=Tight INT(grid=ultrafine) OPT=CalcFC IOP(2/17=4)
 EmpiricalDispersion=GD3 SCRF=(SMD,Solvent=n-Pentadecane) MaxDisk=10000
 MB
 ----------------------------------------------------------------------

 ------------------------------------------------
 NM3CA_carboxy.M062X_6-311pGd_opt_Pentadecane_GD3
 ------------------------------------------------
 Symbolic Z-matrix:
 Charge = -1 Multiplicity = 1

 SCF Done:  E(RM062X) =  -1658.51666662     A.U. after   17 cycles
 SCF Done:  E(RM062X) =  -1658.54225836     A.U. after   14 cycles
 SCF Done:  E(RM062X) =  -1658.56876103     A.U. after   15 cycles
 SCF Done:  E(RM062X) =  -1658.56727279     A.U. after   14 cycles
 SCF Done:  E(RM062X) =  -1658.57008721     A.U. after   15 cycles
 SCF Done:  E(RM062X) =  -1658.55828298     A.U. after   16 cycles
 SCF Done:  E(RM062X) =  -1658.57118375     A.U. after   14 cycles
 SCF Done:  E(RM062X) =  -1658.56954660     A.U. after   16 cycles
 SCF Done:  E(RM062X) =  -1658.57169021     A.U. after   13 cycles
 SCF Done:  E(RM062X) =  -1658.57131889     A.U. after   15 cycles
 SCF Done:  E(RM062X) =  -1658.57210845     A.U. after   11 cycles
 SCF Done:  E(RM062X) =  -1658.57211128     A.U. after   10 cycles
 SCF Done:  E(RM062X) =  -1658.57211406     A.U. after   11 cycles
 SCF Done:  E(RM062X) =  -1658.57211434     A.U. after    9 cycles
 SCF Done:  E(RM062X) =  -1658.57211382     A.U. after    9 cycles
 SCF Done:  E(RM062X) =  -1658.57211432     A.U. after    9 cycles
 SCF Done:  E(RM062X) =  -1658.57211446     A.U. after    9 cycles
 SCF Done:  E(RM062X) =  -1658.57211452     A.U. after    9 cycles
 SCF Done:  E(RM062X) =  -1658.57211453     A.U. after    7 cycles
 Optimization completed.
    -- Stationary point found.
 Normal termination of Gaussian 16 at Mon Mar 22 14:35:17 2021.
 Gaussian 16:  ES64L-G16RevC.01  3-Jul-2019

 ----------------------------------------------------------------------
 # M062X/6-311+G* SCF=Tight INT(grid=ultrafine) EmpiricalDispersion=GD3
  SCRF=(SMD,Solvent=n-Pentadecane) Freq=Noraman MaxDisk=10000MB geom=ch
 eck guess=read IOP(2/17=4)
 ----------------------------------------------------------------------

 ------------------------------------------------
 NM3CA_carboxy.M062X_6-311pGd_opt_Pentadecane_GD3
 ------------------------------------------------
 Structure from the checkpoint file:  "NM3CA_carboxy.M062X_6-311pGd_opt_Pentadecane_GD3.chk"
 Charge = -1 Multiplicity = 1

                         Standard orientation:
 ---------------------------------------------------------------------
 Center     Atomic      Atomic             Coordinates (Angstroms)
 Number     Number       Type             X           Y           Z
 ---------------------------------------------------------------------
      1          6           0        0.682560   -0.043757   -0.047285
      2          7           0       -0.667368   -0.382638   -0.053349
      3          6           0       -1.166094   -1.646860   -0.069569
      4          8           0       -0.540787   -2.687938   -0.101009
      5          8           0       -2.510201   -1.602838   -0.047020
      6          6           0       -3.176446   -2.863601   -0.067362
      7          6           0       -4.664834   -2.589936   -0.009831
      8          6           0       -5.463086   -3.889089   -0.036274
      9          6           0        1.726267   -0.976755   -0.020719
     10          6           0        3.041287   -0.522960   -0.011280
     11          6           0        3.364988    0.825024   -0.023681
     12          6           0        2.307657    1.727701   -0.053913
     13          6           0        0.984709    1.331139   -0.066167
     14          1           0       -1.365503    0.404921   -0.018924
     15          1           0       -2.846990   -3.463766    0.785873
     16          1           0       -2.904200   -3.403835   -0.979162
     17          1           0       -4.939950   -1.952242   -0.854220
     18          1           0       -4.884738   -2.022370    0.898344
     19          1           0       -5.267411   -4.457849   -0.949647
     20          1           0       -6.536295   -3.693203    0.007255
     21          1           0       -5.209152   -4.529526    0.813121
     22          1           0        1.511655   -2.034479   -0.012409
     23         17           0        2.684440    3.436922   -0.078990
     24          1           0        0.182801    2.072161   -0.096947
     25          6           0        4.135735   -1.543072    0.076220
     26          1           0        4.391363    1.166874   -0.017168
     27          9           0        5.335628   -1.047373   -0.271117
     28          9           0        4.277033   -2.029956    1.326105
     29          9           0        3.912656   -2.606704   -0.713251
     30          8           0       -1.362822    3.475129   -0.190248
     31          8           0       -2.524985    1.580453    0.084193
     32          6           0       -2.416202    2.832515   -0.023440
     33          6           0       -3.718738    3.650803    0.054797
     34          6           0       -4.977379    2.832149    0.304460
     35          1           0       -3.799315    4.211446   -0.882514
     36          1           0       -3.579343    4.404348    0.836482
     37          1           0       -5.125924    2.093673   -0.485482
     38          1           0       -5.865069    3.471384    0.348706
     39          1           0       -4.905837    2.281299    1.244269
 ---------------------------------------------------------------------

 SCF Done:  E(RM062X) =  -1658.57211453     A.U. after    2 cycles

 The electronic state is 1-A.
 Alpha  occ. eigenvalues -- -102.62916 -25.24201 -25.23874 -25.23619 -19.61064
 Alpha  occ. eigenvalues --  -19.55199 -19.48800 -19.47971 -14.71719 -10.76347
 Alpha  occ. eigenvalues --  -10.64466 -10.56563 -10.55676 -10.54764 -10.54604
 Alpha  occ. eigenvalues --  -10.53223 -10.51593 -10.50634 -10.50022 -10.49413
 Alpha  occ. eigenvalues --  -10.49221 -10.45943 -10.45860  -9.77186  -7.49693
 Alpha  occ. eigenvalues --   -7.49034  -7.49015  -1.43232  -1.33966  -1.33463
 Alpha  occ. eigenvalues --   -1.19151  -1.09069  -1.07538  -1.00505  -0.97810
 Alpha  occ. eigenvalues --   -0.95326  -0.90399  -0.85733  -0.83486  -0.79639
 Alpha  occ. eigenvalues --   -0.79186  -0.76900  -0.75092  -0.69082  -0.68323
 Alpha  occ. eigenvalues --   -0.65699  -0.65544  -0.65450  -0.63605  -0.61397
 Alpha  occ. eigenvalues --   -0.60215  -0.57714  -0.54590  -0.53946  -0.53780
 Alpha  occ. eigenvalues --   -0.53506  -0.52906  -0.51054  -0.50406  -0.49517
 Alpha  occ. eigenvalues --   -0.49199  -0.48553  -0.47633  -0.47603  -0.46222
 Alpha  occ. eigenvalues --   -0.45859  -0.45831  -0.44851  -0.44309  -0.44072
 Alpha  occ. eigenvalues --   -0.42081  -0.41735  -0.40740  -0.40020  -0.39280
 Alpha  occ. eigenvalues --   -0.38567  -0.38393  -0.37654  -0.37317  -0.36039
 Alpha  occ. eigenvalues --   -0.35984  -0.35180  -0.33324  -0.33252  -0.32964
 Alpha  occ. eigenvalues --   -0.32382  -0.31038  -0.26389  -0.24270  -0.23992
 Alpha  occ. eigenvalues --   -0.22913  -0.22760
 Alpha virt. eigenvalues --    0.04284   0.05132   0.05496   0.05709   0.06460
 Alpha virt. eigenvalues --    0.07034   0.07147   0.07511   0.07850   0.08588
 Alpha virt. eigenvalues --    0.08821   0.09147   0.09631   0.09772   0.10258

 Mulliken charges:
               1
     1  C   -0.665241
     2  N   -0.600768
     3  C   -0.076990
     4  O   -0.346394
     5  O   -0.026949
     6  C   -0.263870
     7  C   -0.150729
     8  C   -1.114415
     9  C   -0.262232
    10  C   -0.046016
    11  C   -0.763635
    12  C    0.471053
    13  C   -0.672984
    14  H    0.591216
    15  H    0.256021
    16  H    0.253280
    17  H    0.269970
    18  H    0.270313
    19  H    0.258154
    20  H    0.271270
    21  H    0.257862
    22  H    0.327939
    23  Cl   0.401710
    24  H    0.425058
    25  C    0.858021
    26  H    0.300525
    27  F   -0.142890
    28  F   -0.071085
    29  F   -0.095546
    30  O   -0.451510
    31  O   -0.481585
    32  C    0.037497
    33  C   -0.296868
    34  C   -0.974881
    35  H    0.252015
    36  H    0.250148
    37  H    0.256258
    38  H    0.238854
    39  H    0.257426
 Sum of Mulliken charges =  -1.00000

 Dipole moment (field-independent basis, Debye):
    X=              0.0271    Y=             -6.3703    Z=              0.1894  Tot=              6.3732
 Quadrupole moment (field-independent basis, Debye-Ang):
   XX=           -173.7800   YY=           -186.9091   ZZ=           -146.1660
   XY=             21.1529   XZ=              0.0254   YZ=              1.4453

  Exact polarizability:     282.521      21.284     267.940      -1.201      -1.739     144.365
 Approx polarizability:     264.164      15.525     277.581      -0.707      -2.086     172.800

                      1                      2                      3
                      A                      A                      A
 Frequencies --     24.4760                26.4478                33.3862
 Red. masses --      4.4738                 2.2664                13.4849
 Frc consts  --      0.0016                 0.0009                 0.0089
 IR Inten    --      0.7500                 0.4121                 0.1861

                      4                      5                      6
                      A                      A                      A
 Frequencies --     39.8473                49.1115                71.1551
 Red. masses --      5.6914                 4.0338                 4.8375
 Frc consts  --      0.0053                 0.0057                 0.0144
 IR Inten    --      0.0435                 1.2194                 2.2310

                      7                      8                      9
                      A                      A                      A
 Frequencies --     78.7604                83.8905                86.3986
 Red. masses --      4.7691                 5.4274                 6.4756
 Frc consts  --      0.0174                 0.0225                 0.0285
 IR Inten    --      2.6108                 0.4937                 0.8128

                     10                     11                     12
                      A                      A                      A
 Frequencies --     96.6530               117.7570               126.2252
 Red. masses --      6.0021                 5.1145                 4.3605
 Frc consts  --      0.0330                 0.0418                 0.0409
 IR Inten    --      4.8855                 7.6184                14.3602

                     13                     14                     15
                      A                      A                      A
 Frequencies --    131.4178               135.3051               141.2271
 Red. masses --      7.1076                 3.4557                 4.5420
 Frc consts  --      0.0723                 0.0373                 0.0534
 IR Inten    --      3.5636                 3.2073                13.7341

                     16                     17                     18
                      A                      A                      A
 Frequencies --    171.7116               177.9882               201.9538
 Red. masses --      3.5924                 9.2128                 5.6308
 Frc consts  --      0.0624                 0.1720                 0.1353
 IR Inten    --      2.6872                 2.4479                 0.2173

                     19                     20                     21
                      A                      A                      A
 Frequencies --    234.6641               237.3054               239.7172
 Red. masses --      5.0881                 1.1493                 1.3407
 Frc consts  --      0.1651                 0.0381                 0.0454
 IR Inten    --      2.3513                 0.0803                 3.0523

                     22                     23                     24
                      A                      A                      A
 Frequencies --    259.4256               266.9468               314.0794
 Red. masses --      4.4195                 5.2986                 3.4189
 Frc consts  --      0.1752                 0.2225                 0.1987
 IR Inten    --      3.7667                 0.6436                18.7482

                     25                     26                     27
                      A                      A                      A
 Frequencies --    325.5988               342.9845               359.9758
 Red. masses --     12.3445                 7.7551                 7.3886
 Frc consts  --      0.7711                 0.5375                 0.5641
 IR Inten    --      2.2024                 2.3334                 7.6292

                     28                     29                     30
                      A                      A                      A
 Frequencies --    367.7930               450.2833               456.2996
 Red. masses --      6.5213                 9.1921                 5.0945
 Frc consts  --      0.5197                 1.0981                 0.6250
 IR Inten    --     43.7294                 8.9057                 0.7549

                     31                     32                     33
                      A                      A                      A
 Frequencies --    486.5141               519.4913               520.5975
 Red. masses --      6.5105                10.7547                 5.7483
 Frc consts  --      0.9079                 1.7100                 0.9179
 IR Inten    --      2.6815                 2.5467                10.3472

                     34                     35                     36
                      A                      A                      A
 Frequencies --    582.3306               587.1995               601.1643
 Red. masses --      5.9171                 1.9505                10.4242
 Frc consts  --      1.1822                 0.3963                 2.2196
 IR Inten    --      0.1038                 1.9087                 0.2802

                     37                     38                     39
                      A                      A                      A
 Frequencies --    653.4281               662.6972               664.5572
 Red. masses --      5.2260                 5.9664                 6.6640
 Frc consts  --      1.3147                 1.5438                 1.7340
 IR Inten    --     10.4258                51.6129                 5.4569

                     40                     41                     42
                      A                      A                      A
 Frequencies --    714.0613               720.3857               758.8873
 Red. masses --     12.4473                 2.6026                 1.0943
 Frc consts  --      3.7394                 0.7958                 0.3713
 IR Inten    --     42.1680                14.2867                 4.6592

                     43                     44                     45
                      A                      A                      A
 Frequencies --    786.0582               801.3140               833.0087
 Red. masses --      8.3121                 9.5894                 1.5079
 Frc consts  --      3.0260                 3.6278                 0.6165
 IR Inten    --     41.5754                19.3251                10.3453

                     46                     47                     48
                      A                      A                      A
 Frequencies --    846.6508               878.9896               885.1156
 Red. masses --     11.5883                 1.4696                 4.0823
 Frc consts  --      4.8942                 0.6690                 1.8843
 IR Inten    --     57.5147                32.0840                57.1087

                     49                     50                     51
                      A                      A                      A
 Frequencies --    902.7361               926.6555               928.8496
 Red. masses --      1.1521                 1.6992                 1.4358
 Frc consts  --      0.5532                 0.8597                 0.7299
 IR Inten    --      3.1637                 9.1161                37.4627

                     52                     53                     54
                      A                      A                      A
 Frequencies --    971.9955              1008.2431              1010.9264
 Red. masses --      5.7399                 3.4636                 1.4421
 Frc consts  --      3.1951                 2.0745                 0.8683
 IR Inten    --    136.7814                26.8060                 5.3870

                     55                     56                     57
                      A                      A                      A
 Frequencies --   1028.1956              1030.7221              1052.8423
 Red. masses --      1.8502                 4.7568                 1.1083
 Frc consts  --      1.1524                 2.9775                 0.7239
 IR Inten    --     11.5961                 1.1886                93.1681

                     58                     59                     60
                      A                      A                      A
 Frequencies --   1076.9942              1109.0024              1110.6580
 Red. masses --      2.4657                 1.7658                 2.4085
 Frc consts  --      1.6851                 1.2795                 1.7505
 IR Inten    --      1.6176                 0.3181                10.1396

                     61                     62                     63
                      A                      A                      A
 Frequencies --   1142.1761              1149.5460              1161.4086
 Red. masses --      2.0625                 4.7698                 3.9981
 Frc consts  --      1.5853                 3.7136                 3.1774
 IR Inten    --     70.8877                95.0563               172.7937

                     64                     65                     66
                      A                      A                      A
 Frequencies --   1165.2843              1168.5174              1194.3166
 Red. masses --      3.5285                 2.5179                 1.6809
 Frc consts  --      2.8229                 2.0256                 1.4126
 IR Inten    --    140.0206                47.0015                 1.0734

                     67                     68                     69
                      A                      A                      A
 Frequencies --   1204.3580              1285.5701              1289.0953
 Red. masses --      5.0279                 3.0478                 1.1988
 Frc consts  --      4.2968                 2.9677                 1.1738
 IR Inten    --    377.3590                68.2035                16.1796

                     70                     71                     72
                      A                      A                      A
 Frequencies --   1290.8325              1305.3593              1330.0291
 Red. masses --      2.9447                 1.1767                 1.7542
 Frc consts  --      2.8909                 1.1813                 1.8283
 IR Inten    --    866.1619                 0.5290               335.6239

                     73                     74                     75
                      A                      A                      A
 Frequencies --   1334.9734              1340.0721              1344.5688
 Red. masses --      1.0661                 1.6038                 1.8387
 Frc consts  --      1.1194                 1.6969                 1.9585
 IR Inten    --      0.3945                76.6746               144.0566

                     76                     77                     78
                      A                      A                      A
 Frequencies --   1352.8424              1400.1472              1418.4612
 Red. masses --      2.2876                 3.8797                 1.4463
 Frc consts  --      2.4668                 4.4812                 1.7146
 IR Inten    --    372.7386               294.5688                64.6525

                     79                     80                     81
                      A                      A                      A
 Frequencies --   1426.5828              1448.8065              1451.8315
 Red. masses --      1.2759                 1.9357                 2.5014
 Frc consts  --      1.5299                 2.3939                 3.1065
 IR Inten    --      7.9556               125.2498               259.4397

                     82                     83                     84
                      A                      A                      A
 Frequencies --   1481.6368              1488.2981              1499.6627
 Red. masses --      1.1869                 4.0565                 1.0703
 Frc consts  --      1.5351                 5.2940                 1.4182
 IR Inten    --      5.2406               158.4702                 1.8542

                     85                     86                     87
                      A                      A                      A
 Frequencies --   1507.3310              1518.3106              1520.8775
 Red. masses --      1.0388                 1.0390                 1.1081
 Frc consts  --      1.3906                 1.4111                 1.5101
 IR Inten    --      8.8020                10.4228                 8.0252

                     88                     89                     90
                      A                      A                      A
 Frequencies --   1521.7741              1523.7339              1537.0362
 Red. masses --      1.7399                 1.4372                 1.1003
 Frc consts  --      2.3740                 1.9660                 1.5315
 IR Inten    --    150.2801                87.2024                10.4642

                     91                     92                     93
                      A                      A                      A
 Frequencies --   1649.6166              1657.2886              1683.8729
 Red. masses --      3.6743                 7.0539                 7.4285
 Frc consts  --      5.8911                11.4150                12.4100
 IR Inten    --     63.8795                40.1691              1178.5031

                     94                     95                     96
                      A                      A                      A
 Frequencies --   1700.8674              1796.3040              2833.5726
 Red. masses --      1.9002                 7.7392                 1.1101
 Frc consts  --      3.2389                14.7131                 5.2515
 IR Inten    --    347.0334               357.2017              2302.4182

                     97                     98                     99
                      A                      A                      A
 Frequencies --   3060.2881              3063.6040              3071.8560
 Red. masses --      1.0443                 1.0375                 1.0594
 Frc consts  --      5.7622                 5.7371                 5.8897
 IR Inten    --     65.6015                27.3900                27.0762

                    100                    101                    102
                      A                      A                      A
 Frequencies --   3072.5369              3083.9939              3101.5863
 Red. masses --      1.0581                 1.0599                 1.1009
 Frc consts  --      5.8853                 5.9392                 6.2397
 IR Inten    --     19.6875                41.5220                15.7437

                    103                    104                    105
                      A                      A                      A
 Frequencies --   3106.0083              3107.6977              3120.2037
 Red. masses --      1.1046                 1.0990                 1.1056
 Frc consts  --      6.2788                 6.2537                 6.3419
 IR Inten    --      6.1060               372.9847                 0.0834

                    106                    107                    108
                      A                      A                      A
 Frequencies --   3129.2218              3139.6496              3140.6155
 Red. masses --      1.0963                 1.1056                 1.1015
 Frc consts  --      6.3248                 6.4213                 6.4012
 IR Inten    --     42.6439                76.7977                40.9099

                    109                    110                    111
                      A                      A                      A
 Frequencies --   3152.2619              3254.6198              3284.7271
 Red. masses --      1.1014                 1.0928                 1.0908
 Frc consts  --      6.4484                 6.8203                 6.9342
 IR Inten    --     43.0370                 1.1034                13.6410

 - Thermochemistry -
 -------------------
 Temperature   298.150 Kelvin.  Pressure   1.00000 Atm.
 Atom     1 has atomic number  6 and mass  12.00000

 Molecular mass:   354.07200 amu.
 Principal axes and moments of inertia in atomic units:
                           1         2         3
     Eigenvalues --  7485.34169********************
           X            0.99954   0.03036  -0.00143
           Y           -0.03036   0.99954   0.00226
           Z            0.00149  -0.00221   1.00000
 This molecule is an asymmetric top.
 Rotational symmetry number  1.
 Warning -- assumption of classical behavior for rotation
           may cause significant error
 Rotational temperatures (Kelvin)      0.01157     0.00625     0.00414
 Rotational constants (GHZ):           0.24110     0.13032     0.08619
 Zero-point vibrational energy     773522.7 (Joules/Mol)
                                  184.87635 (Kcal/Mol)
 Warning -- explicit consideration of  36 degrees of freedom as
           vibrations may cause significant error
 Vibrational temperatures:     35.22    38.05    48.04    57.33    70.66
          (Kelvin)            102.38   113.32   120.70   124.31   139.06
                              169.43   181.61   189.08   194.67   203.19
                              247.05   256.09   290.57   337.63   341.43
                              344.90   373.26   384.08   451.89   468.46
                              493.48   517.92   529.17   647.86   656.51
                              699.99   747.43   749.02   837.84   844.85
                              864.94   940.14   953.47   956.15  1027.37
                             1036.47  1091.87  1130.96  1152.91  1198.51
                             1218.14  1264.67  1273.48  1298.84  1333.25
                             1336.41  1398.48  1450.64  1454.50  1479.34
                             1482.98  1514.81  1549.55  1595.61  1597.99
                             1643.34  1653.94  1671.01  1676.58  1681.24
                             1718.36  1732.80  1849.65  1854.72  1857.22
                             1878.12  1913.62  1920.73  1928.06  1934.53
                             1946.44  2014.50  2040.85  2052.53  2084.51
                             2088.86  2131.74  2141.33  2157.68  2168.71
                             2184.51  2188.20  2189.49  2192.31  2211.45
                             2373.43  2384.47  2422.72  2447.17  2584.48
                             4076.88  4403.07  4407.84  4419.72  4420.70
                             4437.18  4462.49  4468.85  4471.28  4489.28
                             4502.25  4517.26  4518.65  4535.40  4682.67
                             4725.99

 Zero-point correction=                           0.294619 (Hartree/Particle)
 Thermal correction to Energy=                    0.318603
 Thermal correction to Enthalpy=                  0.319547
 Thermal correction to Gibbs Free Energy=         0.237458
 Sum of electronic and zero-point Energies=          -1658.277495
 Sum of electronic and thermal Energies=             -1658.253512
 Sum of electronic and thermal Enthalpies=           -1658.252568
 Sum of electronic and thermal Free Energies=        -1658.334657

                     E (Thermal)             CV                S
                      KCal/Mol        Cal/Mol-Kelvin    Cal/Mol-Kelvin
 Total                  199.926             84.378            172.771
 Electronic               0.000              0.000              0.000
 Translational            0.889              2.981             43.487
 Rotational               0.889              2.981             36.027
 Vibrational            198.149             78.416             93.257
 Vibration     1          0.593              1.985              6.233
 Vibration     2          0.593              1.985              6.079
 Vibration     3          0.594              1.983              5.617
 Vibration     4          0.594              1.981              5.267
 Vibration     5          0.595              1.978              4.853
 Vibration     6          0.598              1.968              4.121
 Vibration     7          0.600              1.963              3.922
 Vibration     8          0.601              1.960              3.798
 Vibration     9          0.601              1.959              3.740
 Vibration    10          0.603              1.952              3.521
 Vibration    11          0.608              1.935              3.137
 Vibration    12          0.611              1.927              3.003
 Vibration    13          0.612              1.922              2.925
 Vibration    14          0.613              1.918              2.869
 Vibration    15          0.615              1.912              2.787
 Vibration    16          0.626              1.877              2.417
 Vibration    17          0.628              1.869              2.349
 Vibration    18          0.639              1.837              2.115
 Vibration    19          0.654              1.788              1.843
 Vibration    20          0.656              1.784              1.823
 Vibration    21          0.657              1.780              1.805
 Vibration    22          0.668              1.747              1.666
 Vibration    23          0.672              1.734              1.616
 Vibration    24          0.702              1.647              1.341
 Vibration    25          0.710              1.624              1.282
 Vibration    26          0.722              1.590              1.198
 Vibration    27          0.734              1.555              1.122
 Vibration    28          0.740              1.538              1.089
 Vibration    29          0.809              1.360              0.795
 Vibration    30          0.815              1.347              0.777
 Vibration    31          0.843              1.280              0.693
 Vibration    32          0.874              1.207              0.611
 Vibration    33          0.876              1.204              0.609
 Vibration    34          0.939              1.070              0.481
 Vibration    35          0.944              1.059              0.472
 Vibration    36          0.959              1.029              0.448

 Optimization completed.
    -- Stationary point found.
 Normal termination of Gaussian 16 at Mon Mar 22 22:28:39 2021.
