 Gaussian 16, Revision C.01,

 ----------------------------------------------------------------------
 # M062X/6-311+G* SCF=Tight INT(grid=ultrafine) OPT=CalcFC IOP(2/17=4)
 EmpiricalDispersion=GD3 SCRF=(SMD,Solvent=h2o) MaxDisk=10000MB
 ----------------------------------------------------------------------

 ------------------------------------------
 NM3CA_carboxy.M062X_6-311pGd_opt_water_GD3
 ------------------------------------------
 Symbolic Z-matrix:
 Charge = -1 Multiplicity = 1

 SCF Done:  E(RM062X) =  -1658.60651078     A.U. after   15 cycles
 SCF Done:  E(RM062X) =  -1658.61026298     A.U. after   16 cycles
 SCF Done:  E(RM062X) =  -1658.60859010     A.U. after   15 cycles
 SCF Done:  E(RM062X) =  -1658.61047884     A.U. after   16 cycles
 SCF Done:  E(RM062X) =  -1658.60766126     A.U. after   16 cycles
 SCF Done:  E(RM062X) =  -1658.61080653     A.U. after   14 cycles
 SCF Done:  E(RM062X) =  -1658.61096059     A.U. after   18 cycles
 SCF Done:  E(RM062X) =  -1658.61101060     A.U. after   13 cycles
 SCF Done:  E(RM062X) =  -1658.61117463     A.U. after   14 cycles
 SCF Done:  E(RM062X) =  -1658.61119281     A.U. after   13 cycles
 SCF Done:  E(RM062X) =  -1658.61296079     A.U. after   13 cycles
 SCF Done:  E(RM062X) =  -1658.61295618     A.U. after   13 cycles
 SCF Done:  E(RM062X) =  -1658.61296275     A.U. after   13 cycles
 SCF Done:  E(RM062X) =  -1658.61296350     A.U. after   11 cycles
 SCF Done:  E(RM062X) =  -1658.61296342     A.U. after   10 cycles
 SCF Done:  E(RM062X) =  -1658.61296355     A.U. after   11 cycles
 SCF Done:  E(RM062X) =  -1658.61296366     A.U. after   10 cycles
 SCF Done:  E(RM062X) =  -1658.61296366     A.U. after   10 cycles
 SCF Done:  E(RM062X) =  -1658.61296367     A.U. after   10 cycles
 Optimization completed.
    -- Stationary point found.
 Normal termination of Gaussian 16 at Thu Apr  1 04:37:03 2021.
 Gaussian 16:  ES64L-G16RevC.01  3-Jul-2019

 ----------------------------------------------------------------------
 # M062X/6-311+G* SCF=Tight INT(grid=ultrafine) EmpiricalDispersion=GD3
  SCRF=(SMD,Solvent=h2o) Freq=Noraman MaxDisk=10000MB geom=check guess=
 read IOP(2/17=4)
 ----------------------------------------------------------------------

 ------------------------------------------
 NM3CA_carboxy.M062X_6-311pGd_opt_water_GD3
 ------------------------------------------
 Structure from the checkpoint file:  "NM3CA_carboxy.M062X_6-311pGd_opt_water_GD3.chk"
 Charge = -1 Multiplicity = 1

                         Standard orientation:
 ---------------------------------------------------------------------
 Center     Atomic      Atomic             Coordinates (Angstroms)
 Number     Number       Type             X           Y           Z
 ---------------------------------------------------------------------
      1          6           0        0.878372    0.164521    0.267772
      2          7           0       -0.490328   -0.063567    0.447497
      3          6           0       -1.160856   -1.175432    0.038717
      4          8           0       -0.663856   -2.181970   -0.431766
      5          8           0       -2.477203   -1.016457    0.233606
      6          6           0       -3.311005   -2.128405   -0.156215
      7          6           0       -4.739802   -1.786645    0.200129
      8          6           0       -5.670594   -2.931305   -0.185838
      9          6           0        1.826269   -0.856724    0.218613
     10          6           0        3.168429   -0.521605    0.068892
     11          6           0        3.605129    0.791474   -0.022049
     12          6           0        2.638160    1.786815    0.044572
     13          6           0        1.293373    1.499934    0.182437
     14          1           0       -1.071474    0.763406    0.635965
     15          1           0       -2.972762   -3.021045    0.373914
     16          1           0       -3.193997   -2.291091   -1.229925
     17          1           0       -5.032705   -0.869900   -0.318682
     18          1           0       -4.804616   -1.589767    1.273874
     19          1           0       -5.626165   -3.129639   -1.259748
     20          1           0       -6.705108   -2.693894    0.067451
     21          1           0       -5.400706   -3.852476    0.336850
     22          1           0        1.528949   -1.891989    0.309251
     23         17           0        3.138434    3.456099   -0.059446
     24          1           0        0.559283    2.296957    0.223591
     25          6           0        4.158870   -1.646986    0.004509
     26          1           0        4.652461    1.038509   -0.134136
     27          9           0        3.982552   -2.406827   -1.092606
     28          9           0        5.427968   -1.222433   -0.019634
     29          9           0        4.044169   -2.476589    1.056765
     30          8           0       -2.204100    1.962890   -1.490204
     31          8           0       -2.259838    2.152480    0.729426
     32          6           0       -2.823249    2.050455   -0.397822
     33          6           0       -4.347595    2.032915   -0.456970
     34          6           0       -5.040651    1.866401    0.886502
     35          1           0       -4.635253    1.238243   -1.150803
     36          1           0       -4.655114    2.968942   -0.935771
     37          1           0       -4.707438    0.958795    1.394704
     38          1           0       -6.123321    1.799886    0.756013
     39          1           0       -4.834424    2.710967    1.546836
 ---------------------------------------------------------------------

 SCF Done:  E(RM062X) =  -1658.61296367     A.U. after    2 cycles

 The electronic state is 1-A.
 Alpha  occ. eigenvalues -- -102.68553 -25.28688 -25.28323 -25.28246 -19.67254
 Alpha  occ. eigenvalues --  -19.61604 -19.57624 -19.57256 -14.78526 -10.81001
 Alpha  occ. eigenvalues --  -10.71048 -10.63555 -10.62224 -10.61444 -10.58767
 Alpha  occ. eigenvalues --  -10.58526 -10.56847 -10.56634 -10.56409 -10.52873
 Alpha  occ. eigenvalues --  -10.52325 -10.51787 -10.51289  -9.82824  -7.55332
 Alpha  occ. eigenvalues --   -7.54666  -7.54651  -1.47820  -1.38529  -1.38066
 Alpha  occ. eigenvalues --   -1.25137  -1.16333  -1.15195  -1.07025  -1.06295
 Alpha  occ. eigenvalues --   -1.01110  -0.95956  -0.90325  -0.88381  -0.85586
 Alpha  occ. eigenvalues --   -0.85083  -0.82055  -0.79395  -0.74338  -0.73351
 Alpha  occ. eigenvalues --   -0.71948  -0.70352  -0.70152  -0.67566  -0.66790
 Alpha  occ. eigenvalues --   -0.66104  -0.63340  -0.59797  -0.59453  -0.58899
 Alpha  occ. eigenvalues --   -0.58830  -0.58362  -0.57905  -0.56302  -0.54845
 Alpha  occ. eigenvalues --   -0.54121  -0.53499  -0.53073  -0.52882  -0.52499
 Alpha  occ. eigenvalues --   -0.52106  -0.51525  -0.50826  -0.50607  -0.49458
 Alpha  occ. eigenvalues --   -0.49085  -0.46627  -0.46469  -0.45724  -0.44944
 Alpha  occ. eigenvalues --   -0.44342  -0.44033  -0.42542  -0.42463  -0.41449
 Alpha  occ. eigenvalues --   -0.40189  -0.39770  -0.39213  -0.39022  -0.38675
 Alpha  occ. eigenvalues --   -0.37768  -0.37697  -0.33714  -0.32766  -0.32173
 Alpha  occ. eigenvalues --   -0.32047  -0.29274
 Alpha virt. eigenvalues --   -0.01244  -0.00002   0.01279   0.02234   0.02643
 Alpha virt. eigenvalues --    0.03228   0.03281   0.03479   0.04499   0.04623
 Alpha virt. eigenvalues --    0.04684   0.05214   0.05668   0.05825   0.06039

 Mulliken charges:
               1
     1  C   -0.434229
     2  N   -0.377699
     3  C   -0.140127
     4  O   -0.432332
     5  O   -0.107782
     6  C   -0.366071
     7  C   -0.093404
     8  C   -1.166160
     9  C   -0.226285
    10  C   -0.202957
    11  C   -0.756583
    12  C    0.607072
    13  C   -0.489107
    14  H    0.479654
    15  H    0.287691
    16  H    0.295759
    17  H    0.270615
    18  H    0.283629
    19  H    0.276539
    20  H    0.284690
    21  H    0.272947
    22  H    0.331948
    23  Cl   0.394171
    24  H    0.333299
    25  C    0.598166
    26  H    0.334996
    27  F   -0.073568
    28  F   -0.148092
    29  F   -0.085352
    30  O   -0.535746
    31  O   -0.537533
    32  C    0.045450
    33  C   -0.468027
    34  C   -0.860427
    35  H    0.292259
    36  H    0.294242
    37  H    0.277375
    38  H    0.271140
    39  H    0.269839
 Sum of Mulliken charges =  -1.00000

 Dipole moment (field-independent basis, Debye):
    X=              1.8112    Y=             -6.0432    Z=              2.8694  Tot=              6.9307
 Quadrupole moment (field-independent basis, Debye-Ang):
   XX=           -153.3225   YY=           -170.7672   ZZ=           -157.6768
   XY=             25.8047   XZ=             -1.7991   YZ=              0.6258

  Exact polarizability:     318.187      20.652     298.120      -7.003       5.415     216.270
 Approx polarizability:     258.295      10.380     256.740      -6.551       4.656     191.726

                      1                      2                      3
                      A                      A                      A
 Frequencies --     16.2615                21.6654                22.8864
 Red. masses --      7.7156                11.3162                 7.3664
 Frc consts  --      0.0012                 0.0031                 0.0023
 IR Inten    --      2.7746                 1.9744                 5.1896

                      4                      5                      6
                      A                      A                      A
 Frequencies --     36.2176                43.0210                49.4489
 Red. masses --      4.9989                 7.3331                 5.3973
 Frc consts  --      0.0039                 0.0080                 0.0078
 IR Inten    --      7.9588                 5.8877                 5.4967

                      7                      8                      9
                      A                      A                      A
 Frequencies --     53.5235                77.7002                84.8150
 Red. masses --      5.5219                 3.6040                 2.9561
 Frc consts  --      0.0093                 0.0128                 0.0125
 IR Inten    --      6.2083                 0.4966                 1.6906

                     10                     11                     12
                      A                      A                      A
 Frequencies --     88.4400               104.7920               113.8009
 Red. masses --      4.3303                 4.2383                 7.1861
 Frc consts  --      0.0200                 0.0274                 0.0548
 IR Inten    --      4.1087                17.7628                 7.0288

                     13                     14                     15
                      A                      A                      A
 Frequencies --    128.5786               139.4354               149.9857
 Red. masses --      7.1118                 5.7667                 2.0711
 Frc consts  --      0.0693                 0.0661                 0.0275
 IR Inten    --      1.3599                12.8442                10.8520

                     16                     17                     18
                      A                      A                      A
 Frequencies --    163.2768               172.7280               189.1185
 Red. masses --      7.2768                 3.3375                 5.5537
 Frc consts  --      0.1143                 0.0587                 0.1170
 IR Inten    --      5.3319                 4.4493                 0.2723

                     19                     20                     21
                      A                      A                      A
 Frequencies --    233.2842               243.0889               252.8476
 Red. masses --      6.4160                 1.1826                 1.8663
 Frc consts  --      0.2057                 0.0412                 0.0703
 IR Inten    --      6.3053                 0.2528                 2.8755

                     22                     23                     24
                      A                      A                      A
 Frequencies --    259.4429               265.1728               297.8018
 Red. masses --      2.0078                 3.8033                 3.8769
 Frc consts  --      0.0796                 0.1576                 0.2026
 IR Inten    --      9.2409                 0.4400                 9.5834

                     25                     26                     27
                      A                      A                      A
 Frequencies --    319.9924               335.7706               357.8441
 Red. masses --     10.1921                 7.8792                 7.0224
 Frc consts  --      0.6149                 0.5234                 0.5298
 IR Inten    --      2.4591                 0.5594                 8.5532

                     28                     29                     30
                      A                      A                      A
 Frequencies --    365.0275               445.3842               455.7860
 Red. masses --      6.6731                 9.1655                 5.0326
 Frc consts  --      0.5239                 1.0712                 0.6160
 IR Inten    --     37.1896                12.9412                 2.1502

                     31                     32                     33
                      A                      A                      A
 Frequencies --    482.3609               505.9814               516.8556
 Red. masses --      6.3843                 4.6211                10.7130
 Frc consts  --      0.8752                 0.6971                 1.6862
 IR Inten    --      4.3091                13.9934                 3.8688

                     34                     35                     36
                      A                      A                      A
 Frequencies --    575.9338               587.9882               599.7425
 Red. masses --      5.5765                 2.1270                10.1113
 Frc consts  --      1.0898                 0.4333                 2.1428
 IR Inten    --      1.4955                26.7060                 0.0456

                     37                     38                     39
                      A                      A                      A
 Frequencies --    648.1720               654.7409               656.5621
 Red. masses --      4.9247                 4.0262                 6.6236
 Frc consts  --      1.2190                 1.0169                 1.6823
 IR Inten    --      5.4689                48.9488                26.0141

                     40                     41                     42
                      A                      A                      A
 Frequencies --    707.6309               710.3570               753.4381
 Red. masses --      2.5686                10.2377                 2.0120
 Frc consts  --      0.7578                 3.0437                 0.6729
 IR Inten    --     41.5139                63.8371               117.7631

                     43                     44                     45
                      A                      A                      A
 Frequencies --    771.5111               790.9896               813.6306
 Red. masses --      1.1498                 6.5907                 1.9250
 Frc consts  --      0.4032                 2.4295                 0.7508
 IR Inten    --     16.6429                36.5259                76.8826

                     46                     47                     48
                      A                      A                      A
 Frequencies --    823.7597               848.2729               889.8407
 Red. masses --      1.5686                11.5888                 3.5094
 Frc consts  --      0.6271                 4.9131                 1.6372
 IR Inten    --     77.1382                81.2858                36.3111

                     49                     50                     51
                      A                      A                      A
 Frequencies --    892.1455               909.1208               910.1889
 Red. masses --      1.5960                 1.1551                 1.5057
 Frc consts  --      0.7484                 0.5625                 0.7350
 IR Inten    --    114.9763                 2.5458                22.0441

                     52                     53                     54
                      A                      A                      A
 Frequencies --    916.4149               929.5176               970.3319
 Red. masses --      1.3845                 1.6723                 5.3114
 Frc consts  --      0.6850                 0.8513                 2.9465
 IR Inten    --      5.2940                12.7369               157.1078

                     55                     56                     57
                      A                      A                      A
 Frequencies --   1012.7494              1017.4290              1024.9660
 Red. masses --      5.9984                 6.7629                 1.6843
 Frc consts  --      3.6248                 4.1247                 1.0425
 IR Inten    --      4.8978                25.9940                18.1471

                     58                     59                     60
                      A                      A                      A
 Frequencies --   1076.0553              1105.1346              1110.3323
 Red. masses --      2.4395                 1.8707                 2.2248
 Frc consts  --      1.6642                 1.3461                 1.6160
 IR Inten    --      8.8557                12.3038                 9.8168

                     61                     62                     63
                      A                      A                      A
 Frequencies --   1120.1681              1133.6245              1143.2583
 Red. masses --      7.1693                 2.2121                12.1986
 Frc consts  --      5.3002                 1.6749                 9.3940
 IR Inten    --    184.9428                66.5665               456.5808

                     64                     65                     66
                      A                      A                      A
 Frequencies --   1157.0336              1165.1398              1189.3152
 Red. masses --      1.7494                 2.3860                 4.4693
 Frc consts  --      1.3798                 1.9084                 3.7246
 IR Inten    --      0.3063                13.9568               484.0335

                     67                     68                     69
                      A                      A                      A
 Frequencies --   1192.1774              1267.3372              1269.7141
 Red. masses --      1.6545                 2.9384                 2.6762
 Frc consts  --      1.3855                 2.7806                 2.5420
 IR Inten    --      1.1197              1053.1606               180.1168

                     70                     71                     72
                      A                      A                      A
 Frequencies --   1289.1355              1292.0032              1309.6936
 Red. masses --      1.1812                 1.1878                 2.0919
 Frc consts  --      1.1566                 1.1682                 2.1142
 IR Inten    --      0.6920                10.8377               318.0960

                     73                     74                     75
                      A                      A                      A
 Frequencies --   1333.6158              1337.5229              1340.3095
 Red. masses --      1.7141                 1.0733                 2.1620
 Frc consts  --      1.7961                 1.1313                 2.2883
 IR Inten    --     92.1703                 1.5587               140.5452

                     76                     77                     78
                      A                      A                      A
 Frequencies --   1347.8392              1382.2999              1414.3413
 Red. masses --      1.5523                 5.0605                 1.3798
 Frc consts  --      1.6615                 5.6970                 1.6262
 IR Inten    --     89.8368               264.2634                66.9776

                     79                     80                     81
                      A                      A                      A
 Frequencies --   1418.6401              1443.3625              1445.2423
 Red. masses --      1.2751                 2.6980                 1.5182
 Frc consts  --      1.5119                 3.3117                 1.8684
 IR Inten    --      9.4259               418.6997                10.3417

                     82                     83                     84
                      A                      A                      A
 Frequencies --   1466.8977              1482.7883              1487.2507
 Red. masses --      1.3427                 1.0744                 3.6727
 Frc consts  --      1.7022                 1.3918                 4.7863
 IR Inten    --     61.7873                 7.4515               243.6189

                     85                     86                     87
                      A                      A                      A
 Frequencies --   1496.2768              1502.5412              1506.6059
 Red. masses --      1.0381                 1.0379                 1.0864
 Frc consts  --      1.3693                 1.3806                 1.4529
 IR Inten    --     13.6849                13.9983                76.9200

                     88                     89                     90
                      A                      A                      A
 Frequencies --   1508.1993              1508.8011              1522.6488
 Red. masses --      3.7444                 1.0936                 1.1017
 Frc consts  --      5.0182                 1.4667                 1.5049
 IR Inten    --    336.6941                 9.5224                19.0381

                     91                     92                     93
                      A                      A                      A
 Frequencies --   1535.0990              1619.1417              1664.0983
 Red. masses --      7.5264                 1.9588                 7.0287
 Frc consts  --     10.4498                 3.0257                11.4678
 IR Inten    --   1260.5864               521.4657               424.4669

                     94                     95                     96
                      A                      A                      A
 Frequencies --   1686.0472              1735.8355              3069.0519
 Red. masses --      4.0029                 8.7134                 1.0370
 Frc consts  --      6.7044                15.4687                 5.7548
 IR Inten    --     18.4860               848.3056                32.3676

                     97                     98                     99
                      A                      A                      A
 Frequencies --   3072.9531              3074.9001              3082.6279
 Red. masses --      1.0385                 1.0623                 1.0612
 Frc consts  --      5.7781                 5.9177                 5.9413
 IR Inten    --     48.2306                13.1060                17.9458

                    100                    101                    102
                      A                      A                      A
 Frequencies --   3095.2636              3111.6964              3119.8421
 Red. masses --      1.0571                 1.0995                 1.1015
 Frc consts  --      5.9671                 6.2725                 6.3171
 IR Inten    --     60.4782                 6.9827                 0.4407

                    103                    104                    105
                      A                      A                      A
 Frequencies --   3137.6400              3141.0573              3146.7701
 Red. masses --      1.1051                 1.1024                 1.1030
 Frc consts  --      6.4100                 6.4081                 6.4352
 IR Inten    --     23.4285                51.2029                60.4770

                    106                    107                    108
                      A                      A                      A
 Frequencies --   3147.7414              3153.6357              3227.0319
 Red. masses --      1.1023                 1.1094                 1.0940
 Frc consts  --      6.4352                 6.5006                 6.7125
 IR Inten    --     36.9702                92.0660                 1.3298

                    109                    110                    111
                      A                      A                      A
 Frequencies --   3258.6312              3266.0543              3289.6191
 Red. masses --      1.0935                 1.0928                 1.0860
 Frc consts  --      6.8415                 6.8678                 6.9242
 IR Inten    --      9.6537                 8.9665              1160.3222

 - Thermochemistry -
 -------------------
 Temperature   298.150 Kelvin.  Pressure   1.00000 Atm.
 Atom     1 has atomic number  6 and mass  12.00000

 Molecular mass:   354.07200 amu.
 Principal axes and moments of inertia in atomic units:
                           1         2         3
     Eigenvalues --  5638.91829********************
           X            0.99979   0.02025  -0.00156
           Y           -0.02025   0.99979   0.00404
           Z            0.00164  -0.00401   0.99999
 This molecule is an asymmetric top.
 Rotational symmetry number  1.
 Warning -- assumption of classical behavior for rotation
           may cause significant error
 Rotational temperatures (Kelvin)      0.01536     0.00565     0.00431
 Rotational constants (GHZ):           0.32005     0.11777     0.08991
 Zero-point vibrational energy     770441.8 (Joules/Mol)
                                  184.14002 (Kcal/Mol)
 Warning -- explicit consideration of  36 degrees of freedom as
           vibrations may cause significant error
 Vibrational temperatures:     23.40    31.17    32.93    52.11    61.90
          (Kelvin)             71.15    77.01   111.79   122.03   127.25
                              150.77   163.73   185.00   200.62   215.80
                              234.92   248.52   272.10   335.64   349.75
                              363.79   373.28   381.52   428.47   460.40
                              483.10   514.86   525.19   640.81   655.77
                              694.01   727.99   743.64   828.64   845.98
                              862.90   932.57   942.03   944.65  1018.12
                             1022.05  1084.03  1110.03  1138.06  1170.63
                             1185.21  1220.48  1280.28  1283.60  1308.02
                             1309.56  1318.52  1337.37  1396.09  1457.12
                             1463.85  1474.70  1548.20  1590.04  1597.52
                             1611.67  1631.03  1644.89  1664.71  1676.38
                             1711.16  1715.28  1823.42  1826.84  1854.78
                             1858.90  1884.36  1918.78  1924.40  1928.41
                             1939.24  1988.82  2034.92  2041.11  2076.68
                             2079.38  2110.54  2133.40  2139.82  2152.81
                             2161.82  2167.67  2169.96  2170.83  2190.75
                             2208.67  2329.58  2394.27  2425.85  2497.48
                             4415.68  4421.29  4424.10  4435.21  4453.39
                             4477.04  4488.76  4514.36  4519.28  4527.50
                             4528.90  4537.38  4642.98  4688.44  4699.12
                             4733.03

 Zero-point correction=                           0.293446 (Hartree/Particle)
 Thermal correction to Energy=                    0.317848
 Thermal correction to Enthalpy=                  0.318792
 Thermal correction to Gibbs Free Energy=         0.234320
 Sum of electronic and zero-point Energies=          -1658.319518
 Sum of electronic and thermal Energies=             -1658.295116
 Sum of electronic and thermal Enthalpies=           -1658.294171
 Sum of electronic and thermal Free Energies=        -1658.378644

                     E (Thermal)             CV                S
                      KCal/Mol        Cal/Mol-Kelvin    Cal/Mol-Kelvin
 Total                  199.453             85.330            177.788
 Electronic               0.000              0.000              0.000
 Translational            0.889              2.981             43.487
 Rotational               0.889              2.981             35.804
 Vibrational            197.675             79.368             98.496
 Vibration     1          0.593              1.986              7.045
 Vibration     2          0.593              1.985              6.475
 Vibration     3          0.593              1.985              6.367
 Vibration     4          0.594              1.982              5.456
 Vibration     5          0.595              1.980              5.115
 Vibration     6          0.595              1.978              4.839
 Vibration     7          0.596              1.976              4.683
 Vibration     8          0.599              1.964              3.948
 Vibration     9          0.601              1.960              3.776
 Vibration    10          0.601              1.957              3.694
 Vibration    11          0.605              1.945              3.363
 Vibration    12          0.607              1.938              3.203
 Vibration    13          0.611              1.925              2.967
 Vibration    14          0.615              1.914              2.812
 Vibration    15          0.618              1.903              2.672
 Vibration    16          0.623              1.888              2.511
 Vibration    17          0.626              1.876              2.406
 Vibration    18          0.633              1.855              2.236
 Vibration    19          0.654              1.790              1.854
 Vibration    20          0.659              1.774              1.780
 Vibration    21          0.664              1.758              1.711
 Vibration    22          0.668              1.747              1.666
 Vibration    23          0.671              1.737              1.627
 Vibration    24          0.691              1.678              1.429
 Vibration    25          0.706              1.635              1.310
 Vibration    26          0.717              1.604              1.232
 Vibration    27          0.733              1.559              1.131
 Vibration    28          0.738              1.544              1.101
 Vibration    29          0.805              1.371              0.810
 Vibration    30          0.814              1.348              0.778
 Vibration    31          0.839              1.289              0.704
 Vibration    32          0.861              1.237              0.643
 Vibration    33          0.872              1.213              0.617
 Vibration    34          0.932              1.083              0.493
 Vibration    35          0.945              1.057              0.471
 Vibration    36          0.958              1.032              0.450

 Optimization completed.
    -- Stationary point found.
 Normal termination of Gaussian 16 at Thu Apr  1 12:59:15 2021.
