 Gaussian 16, Revision C.01,
 Gaussian 16:  ES64L-G16RevC.01  3-Jul-2019

 ----------------------------------------------------------------------
 # DSDPBEP86/AUG-cc-PVTZ SCF=Tight INT(grid=ultrafine) MaxDisk=1400000M
 B
 ----------------------------------------------------------------------

 --------------------------------------
 NM3CA_carboxy_c2.DSDPBEP86_AUG-cc-PVTZ
 --------------------------------------
 Symbolic Z-matrix:
 Charge = -1 Multiplicity = 1

                         Standard orientation:
 ---------------------------------------------------------------------
 Center     Atomic      Atomic             Coordinates (Angstroms)
 Number     Number       Type             X           Y           Z
 ---------------------------------------------------------------------
      1          6           0       -0.548898   -0.797574   -0.015567
      2          7           0        0.825077   -0.586519    0.015368
      3          6           0        1.764509   -1.557518    0.109460
      4          8           0        1.595835   -2.758188    0.198602
      5          8           0        2.995437   -0.998750    0.098143
      6          6           0        4.084139   -1.905974    0.180425
      7          6           0        5.356503   -1.082851    0.153125
      8          6           0        6.594368   -1.971668    0.230940
      9          6           0       -1.364698    0.346213    0.069290
     10          6           0       -2.738830    0.202629    0.007882
     11          6           0       -3.354493   -1.043086   -0.122105
     12          6           0       -2.527491   -2.147574   -0.189525
     13          6           0       -1.143306   -2.060527   -0.142022
     14          1           0        1.166869    0.416772   -0.110360
     15          1           0        4.043828   -2.607537   -0.659060
     16          1           0        4.006735   -2.493303    1.100913
     17          1           0        5.335747   -0.377045    0.987600
     18          1           0        5.367117   -0.483915   -0.761173
     19          1           0        6.600855   -2.562928    1.150898
     20          1           0        7.510622   -1.378313    0.212156
     21          1           0        6.634279   -2.669951   -0.609734
     22          1           0       -0.902157    1.323124    0.216711
     23         17           0       -3.258836   -3.735356   -0.356501
     24          1           0       -0.535616   -2.950223   -0.200079
     25          6           0       -3.614167    1.413198    0.152557
     26          1           0       -4.430676   -1.143552   -0.170919
     27          9           0       -4.765959    1.282307   -0.545111
     28          9           0       -3.985840    1.615727    1.432629
     29          9           0       -3.031117    2.534389   -0.266657
     30          8           0        0.264620    2.939364    0.877057
     31          8           0        1.692605    1.876253   -0.482527
     32          6           0        1.248667    2.895045    0.120703
     33          6           0        2.002020    4.216978   -0.121499
     34          6           0        3.272832    4.079335   -0.949417
     35          1           0        2.211782    4.651637    0.860565
     36          1           0        1.294378    4.901225   -0.601596
     37          1           0        3.977998    3.401156   -0.464766
     38          1           0        3.764662    5.047080   -1.093887
     39          1           0        3.049573    3.651427   -1.927764
 ---------------------------------------------------------------------

 SCF Done:  E(RDSDPBEP86) =  -1654.65737003     A.U. after   14 cycles
 E2(DSDPBEP86) =    -0.2218070424D+01 E(DSDPBEP86) =    -0.16568754404541D+04

 The electronic state is 1-A.
 Alpha  occ. eigenvalues -- -103.48024 -25.60941 -25.60548 -25.60456 -19.93956
 Alpha  occ. eigenvalues --  -19.87248 -19.80545 -19.79618 -14.98667 -10.98189
 Alpha  occ. eigenvalues --  -10.87130 -10.79489 -10.77873 -10.77801 -10.77016
 Alpha  occ. eigenvalues --  -10.75024 -10.73801 -10.73634 -10.73166 -10.72797
 Alpha  occ. eigenvalues --  -10.72007 -10.68500 -10.68309 -10.05523  -7.63189
 Alpha  occ. eigenvalues --   -7.62743  -7.62734  -1.47186  -1.37886  -1.37500
 Alpha  occ. eigenvalues --   -1.22983  -1.12504  -1.10764  -1.03158  -1.00718
 Alpha  occ. eigenvalues --   -0.98085  -0.92462  -0.88457  -0.84960  -0.81126
 Alpha  occ. eigenvalues --   -0.80897  -0.76709  -0.76602  -0.69210  -0.67118
 Alpha  occ. eigenvalues --   -0.65914  -0.64825  -0.63345  -0.63038  -0.61705
 Alpha  occ. eigenvalues --   -0.58383  -0.56351  -0.52843  -0.52650  -0.51971
 Alpha  occ. eigenvalues --   -0.51847  -0.51347  -0.49785  -0.48824  -0.47329
 Alpha  occ. eigenvalues --   -0.47033  -0.46750  -0.46386  -0.45531  -0.44691
 Alpha  occ. eigenvalues --   -0.43919  -0.43453  -0.42992  -0.42055  -0.41707
 Alpha  occ. eigenvalues --   -0.39967  -0.39648  -0.39027  -0.38476  -0.37940
 Alpha  occ. eigenvalues --   -0.36168  -0.35654  -0.35399  -0.34984  -0.34500
 Alpha  occ. eigenvalues --   -0.33759  -0.32733  -0.31585  -0.30290  -0.30157
 Alpha  occ. eigenvalues --   -0.29005  -0.28522  -0.21970  -0.21078  -0.20564
 Alpha  occ. eigenvalues --   -0.19587  -0.17821
 Alpha virt. eigenvalues --    0.07484   0.09109   0.09519   0.09682   0.09768
 Alpha virt. eigenvalues --    0.10797   0.11403   0.11518   0.11788   0.12445
 Alpha virt. eigenvalues --    0.12754   0.13064   0.13243   0.13676   0.13943

 Mulliken charges:
               1
     1  C    0.737414
     2  N   -0.146308
     3  C    0.232593
     4  O   -0.914162
     5  O   -0.275912
     6  C   -0.345553
     7  C   -0.475122
     8  C   -0.984970
     9  C   -1.272529
    10  C    0.668966
    11  C   -0.988433
    12  C    0.698892
    13  C   -0.911805
    14  H    0.734114
    15  H    0.321432
    16  H    0.336877
    17  H    0.218788
    18  H    0.230852
    19  H    0.275212
    20  H    0.279315
    21  H    0.276586
    22  H    0.785239
    23  Cl  -0.480786
    24  H    0.563072
    25  C    1.290739
    26  H    0.430332
    27  F   -0.427293
    28  F   -0.401396
    29  F   -0.368189
    30  O   -0.954385
    31  O   -0.785229
    32  C    0.512168
    33  C   -0.180576
    34  C   -0.963621
    35  H    0.235243
    36  H    0.193024
    37  H    0.329383
    38  H    0.260843
    39  H    0.265182
 Sum of Mulliken charges =  -1.00000

 Dipole moment (field-independent basis, Debye):
    X=              1.7425    Y=             -4.0292    Z=             -1.0183  Tot=              4.5064
 Quadrupole moment (field-independent basis, Debye-Ang):
   XX=           -169.2422   YY=           -187.9663   ZZ=           -149.1973
   XY=             -5.4456   XZ=              3.2838   YZ=             -3.6636

 Normal termination of Gaussian 16 at Thu Apr  1 05:45:07 2021.
