 Gaussian 16, Revision C.01,
 Gaussian 16:  ES64L-G16RevC.01  3-Jul-2019

 ----------------------------------------------------------------------
 # DSDPBEP86/AUG-cc-PVTZ SCF=Tight INT(grid=ultrafine) MaxDisk=1400000M
 B
 ----------------------------------------------------------------------

 -----------------------------------
 NM3CA_carboxy.DSDPBEP86_AUG-cc-PVTZ
 -----------------------------------
 Symbolic Z-matrix:
 Charge = -1 Multiplicity = 1

                         Standard orientation:
 ---------------------------------------------------------------------
 Center     Atomic      Atomic             Coordinates (Angstroms)
 Number     Number       Type             X           Y           Z
 ---------------------------------------------------------------------
      1          6           0        0.668287   -0.038198   -0.049001
      2          7           0       -0.684473   -0.363226   -0.062277
      3          6           0       -1.186664   -1.620294   -0.123696
      4          8           0       -0.575517   -2.668526   -0.191459
      5          8           0       -2.537099   -1.569151   -0.105803
      6          6           0       -3.200772   -2.823426   -0.149404
      7          6           0       -4.690070   -2.543636   -0.121932
      8          6           0       -5.498313   -3.837421   -0.157693
      9          6           0        1.700515   -0.976619    0.075321
     10          6           0        3.019029   -0.533600    0.102536
     11          6           0        3.354521    0.808994    0.010061
     12          6           0        2.308296    1.716488   -0.115963
     13          6           0        0.983395    1.330120   -0.152525
     14          1           0       -1.380442    0.434018    0.042024
     15          1           0       -2.892491   -3.433172    0.705990
     16          1           0       -2.911201   -3.363340   -1.056514
     17          1           0       -4.943181   -1.907300   -0.973982
     18          1           0       -4.922147   -1.966820    0.777039
     19          1           0       -5.283631   -4.414207   -1.061684
     20          1           0       -6.571133   -3.635675   -0.140484
     21          1           0       -5.266725   -4.473277    0.701361
     22          1           0        1.471887   -2.029103    0.151395
     23         17           0        2.700926    3.417514   -0.239602
     24          1           0        0.186590    2.065704   -0.283696
     25          6           0        4.107506   -1.559652    0.183223
     26          1           0        4.382716    1.143654    0.036939
     27          9           0        4.334368   -2.157825   -1.003958
     28          9           0        5.285847   -1.035296    0.568490
     29          9           0        3.823418   -2.547092    1.048867
     30          8           0       -1.437922    3.272414   -0.702902
     31          8           0       -2.457350    1.586054    0.365468
     32          6           0       -2.391340    2.762283   -0.090346
     33          6           0       -3.621479    3.659508    0.148924
     34          6           0       -4.796121    2.959112    0.818994
     35          1           0       -3.908479    4.075775   -0.821673
     36          1           0       -3.280976    4.512214    0.745752
     37          1           0       -5.135810    2.113783    0.217461
     38          1           0       -5.639295    3.642061    0.967262
     39          1           0       -4.500421    2.554178    1.787978
 ---------------------------------------------------------------------

 SCF Done:  E(RDSDPBEP86) =  -1654.65810955     A.U. after   15 cycles
 E2(DSDPBEP86) =    -0.2217923001D+01 E(DSDPBEP86) =    -0.16568760325548D+04

 The electronic state is 1-A.
 Alpha  occ. eigenvalues -- -103.46880 -25.62234 -25.61904 -25.61627 -19.93970
 Alpha  occ. eigenvalues --  -19.87263 -19.80550 -19.79667 -14.98771 -10.99326
 Alpha  occ. eigenvalues --  -10.87159 -10.78954 -10.77870 -10.77794 -10.77062
 Alpha  occ. eigenvalues --  -10.75433 -10.73879 -10.73622 -10.73155 -10.72719
 Alpha  occ. eigenvalues --  -10.71922 -10.68534 -10.68353 -10.04379  -7.62051
 Alpha  occ. eigenvalues --   -7.61597  -7.61580  -1.48393  -1.39151  -1.38667
 Alpha  occ. eigenvalues --   -1.23016  -1.12537  -1.10758  -1.03193  -1.00760
 Alpha  occ. eigenvalues --   -0.97712  -0.92345  -0.88479  -0.85073  -0.80970
 Alpha  occ. eigenvalues --   -0.80869  -0.77474  -0.76560  -0.68741  -0.68599
 Alpha  occ. eigenvalues --   -0.65915  -0.65193  -0.64518  -0.64035  -0.60622
 Alpha  occ. eigenvalues --   -0.59302  -0.56500  -0.53599  -0.53102  -0.52667
 Alpha  occ. eigenvalues --   -0.52034  -0.51625  -0.49811  -0.49116  -0.48522
 Alpha  occ. eigenvalues --   -0.47935  -0.47041  -0.46802  -0.46372  -0.44729
 Alpha  occ. eigenvalues --   -0.43904  -0.43567  -0.43032  -0.42295  -0.41807
 Alpha  occ. eigenvalues --   -0.39960  -0.39381  -0.38858  -0.38476  -0.37994
 Alpha  occ. eigenvalues --   -0.36093  -0.35630  -0.35331  -0.35147  -0.34499
 Alpha  occ. eigenvalues --   -0.33315  -0.32764  -0.30408  -0.30313  -0.30118
 Alpha  occ. eigenvalues --   -0.29218  -0.28483  -0.21440  -0.21087  -0.20598
 Alpha  occ. eigenvalues --   -0.19618  -0.17971
 Alpha virt. eigenvalues --    0.07491   0.09079   0.09536   0.09707   0.09772
 Alpha virt. eigenvalues --    0.10814   0.11395   0.11596   0.11745   0.12463
 Alpha virt. eigenvalues --    0.12782   0.12970   0.13258   0.13856   0.13968

 Mulliken charges:
               1
     1  C    0.448289
     2  N   -0.181405
     3  C    0.240370
     4  O   -0.909339
     5  O   -0.277616
     6  C   -0.338675
     7  C   -0.482637
     8  C   -0.984068
     9  C   -0.756846
    10  C    0.727216
    11  C   -0.976700
    12  C    0.445266
    13  C   -1.055393
    14  H    0.689190
    15  H    0.320560
    16  H    0.333338
    17  H    0.220154
    18  H    0.229990
    19  H    0.276206
    20  H    0.279709
    21  H    0.277019
    22  H    0.538942
    23  Cl  -0.429848
    24  H    1.009349
    25  C    1.237589
    26  H    0.433418
    27  F   -0.409191
    28  F   -0.392322
    29  F   -0.411736
    30  O   -0.956138
    31  O   -0.758415
    32  C    0.465616
    33  C   -0.190787
    34  C   -0.957780
    35  H    0.232187
    36  H    0.207485
    37  H    0.323914
    38  H    0.268242
    39  H    0.264846
 Sum of Mulliken charges =  -1.00000

 Dipole moment (field-independent basis, Debye):
    X=              0.2048    Y=             -5.3442    Z=              0.8588  Tot=              5.4167
 Quadrupole moment (field-independent basis, Debye-Ang):
   XX=           -179.6172   YY=           -186.0362   ZZ=           -147.5987
   XY=             18.5835   XZ=              1.3904   YZ=              4.0600

 Normal termination of Gaussian 16 at Thu Apr  1 05:37:45 2021.
