 Gaussian 16, Revision C.01,
 Gaussian 16:  ES64L-G16RevC.01  3-Jul-2019

 ----------------------------------------------------------------------
 # DSDPBEP86/AUG-cc-PVTZ SCF=Tight INT(grid=ultrafine) Pop=NBO MaxDisk=
 1400000MB
 ----------------------------------------------------------------------

 -----------------------------------
 NM3CA_carboxy.DSDPBEP86_AUG-cc-PVTZ
 -----------------------------------
 Symbolic Z-matrix:
 Charge = -1 Multiplicity = 1

                         Standard orientation:
 ---------------------------------------------------------------------
 Center     Atomic      Atomic             Coordinates (Angstroms)
 Number     Number       Type             X           Y           Z
 ---------------------------------------------------------------------
      1          6           0        0.668287   -0.038198   -0.049001
      2          7           0       -0.684473   -0.363226   -0.062277
      3          6           0       -1.186664   -1.620294   -0.123696
      4          8           0       -0.575517   -2.668526   -0.191459
      5          8           0       -2.537099   -1.569151   -0.105803
      6          6           0       -3.200772   -2.823426   -0.149404
      7          6           0       -4.690070   -2.543636   -0.121932
      8          6           0       -5.498313   -3.837421   -0.157693
      9          6           0        1.700515   -0.976619    0.075321
     10          6           0        3.019029   -0.533600    0.102536
     11          6           0        3.354521    0.808994    0.010061
     12          6           0        2.308296    1.716488   -0.115963
     13          6           0        0.983395    1.330120   -0.152525
     14          1           0       -1.380442    0.434018    0.042024
     15          1           0       -2.892491   -3.433172    0.705990
     16          1           0       -2.911201   -3.363340   -1.056514
     17          1           0       -4.943181   -1.907300   -0.973982
     18          1           0       -4.922147   -1.966820    0.777039
     19          1           0       -5.283631   -4.414207   -1.061684
     20          1           0       -6.571133   -3.635675   -0.140484
     21          1           0       -5.266725   -4.473277    0.701361
     22          1           0        1.471887   -2.029103    0.151395
     23         17           0        2.700926    3.417514   -0.239602
     24          1           0        0.186590    2.065704   -0.283696
     25          6           0        4.107506   -1.559652    0.183223
     26          1           0        4.382716    1.143654    0.036939
     27          9           0        4.334368   -2.157825   -1.003958
     28          9           0        5.285847   -1.035296    0.568490
     29          9           0        3.823418   -2.547092    1.048867
     30          8           0       -1.437922    3.272414   -0.702902
     31          8           0       -2.457350    1.586054    0.365468
     32          6           0       -2.391340    2.762283   -0.090346
     33          6           0       -3.621479    3.659508    0.148924
     34          6           0       -4.796121    2.959112    0.818994
     35          1           0       -3.908479    4.075775   -0.821673
     36          1           0       -3.280976    4.512214    0.745752
     37          1           0       -5.135810    2.113783    0.217461
     38          1           0       -5.639295    3.642061    0.967262
     39          1           0       -4.500421    2.554178    1.787978
 ---------------------------------------------------------------------

 SCF Done:  E(RDSDPBEP86) =  -1654.65810955     A.U. after   15 cycles
 E2(DSDPBEP86) =    -0.2217923001D+01 E(DSDPBEP86) =    -0.16568760325548D+04

 The electronic state is 1-A.
 Alpha  occ. eigenvalues -- -103.46880 -25.62234 -25.61904 -25.61627 -19.93970
 Alpha  occ. eigenvalues --  -19.87263 -19.80550 -19.79667 -14.98771 -10.99326
 Alpha  occ. eigenvalues --  -10.87159 -10.78954 -10.77870 -10.77794 -10.77062
 Alpha  occ. eigenvalues --  -10.75433 -10.73879 -10.73622 -10.73155 -10.72719
 Alpha  occ. eigenvalues --  -10.71922 -10.68534 -10.68353 -10.04379  -7.62051
 Alpha  occ. eigenvalues --   -7.61597  -7.61580  -1.48393  -1.39151  -1.38667
 Alpha  occ. eigenvalues --   -1.23016  -1.12537  -1.10758  -1.03193  -1.00760
 Alpha  occ. eigenvalues --   -0.97712  -0.92345  -0.88479  -0.85073  -0.80970
 Alpha  occ. eigenvalues --   -0.80869  -0.77474  -0.76560  -0.68741  -0.68599
 Alpha  occ. eigenvalues --   -0.65915  -0.65193  -0.64518  -0.64035  -0.60622
 Alpha  occ. eigenvalues --   -0.59302  -0.56500  -0.53599  -0.53102  -0.52667
 Alpha  occ. eigenvalues --   -0.52034  -0.51625  -0.49811  -0.49116  -0.48522
 Alpha  occ. eigenvalues --   -0.47935  -0.47041  -0.46802  -0.46372  -0.44729
 Alpha  occ. eigenvalues --   -0.43904  -0.43567  -0.43032  -0.42295  -0.41807
 Alpha  occ. eigenvalues --   -0.39960  -0.39381  -0.38858  -0.38476  -0.37994
 Alpha  occ. eigenvalues --   -0.36093  -0.35630  -0.35331  -0.35147  -0.34499
 Alpha  occ. eigenvalues --   -0.33315  -0.32764  -0.30408  -0.30313  -0.30118
 Alpha  occ. eigenvalues --   -0.29218  -0.28483  -0.21440  -0.21087  -0.20598
 Alpha  occ. eigenvalues --   -0.19618  -0.17971
 Alpha virt. eigenvalues --    0.07491   0.09079   0.09536   0.09707   0.09772
 Alpha virt. eigenvalues --    0.10814   0.11395   0.11596   0.11745   0.12463
 Alpha virt. eigenvalues --    0.12782   0.12970   0.13258   0.13856   0.13968

 Mulliken charges:
               1
     1  C    0.448289
     2  N   -0.181405
     3  C    0.240370
     4  O   -0.909339
     5  O   -0.277616
     6  C   -0.338675
     7  C   -0.482637
     8  C   -0.984068
     9  C   -0.756846
    10  C    0.727216
    11  C   -0.976700
    12  C    0.445266
    13  C   -1.055393
    14  H    0.689190
    15  H    0.320560
    16  H    0.333338
    17  H    0.220154
    18  H    0.229990
    19  H    0.276206
    20  H    0.279709
    21  H    0.277019
    22  H    0.538942
    23  Cl  -0.429848
    24  H    1.009349
    25  C    1.237589
    26  H    0.433418
    27  F   -0.409191
    28  F   -0.392322
    29  F   -0.411736
    30  O   -0.956138
    31  O   -0.758415
    32  C    0.465616
    33  C   -0.190787
    34  C   -0.957780
    35  H    0.232187
    36  H    0.207485
    37  H    0.323914
    38  H    0.268242
    39  H    0.264846
 Sum of Mulliken charges =  -1.00000

 Dipole moment (field-independent basis, Debye):
    X=              0.2048    Y=             -5.3442    Z=              0.8588  Tot=              5.4167
 Quadrupole moment (field-independent basis, Debye-Ang):
   XX=           -179.6172   YY=           -186.0362   ZZ=           -147.5987
   XY=             18.5835   XZ=              1.3904   YZ=              4.0600

 Summary of Natural Population Analysis:

                                       Natural Population
                Natural  -----------------------------------------------
    Atom  No    Charge         Core      Valence    Rydberg      Total
 -----------------------------------------------------------------------
      C    1    0.21806      1.99909     3.75477    0.02807     5.78194
      N    2   -0.69450      1.99931     5.66640    0.02879     7.69450
      C    3    1.01244      1.99946     2.95487    0.03322     4.98756
      O    4   -0.73760      1.99975     6.70598    0.03186     8.73760
      O    5   -0.56797      1.99973     6.54339    0.02485     8.56797
      C    6    0.01071      1.99932     3.96415    0.02582     5.98929
      C    7   -0.37593      1.99950     4.35507    0.02135     6.37593
      C    8   -0.54852      1.99953     4.53401    0.01497     6.54852
      C    9   -0.23482      1.99909     4.21500    0.02072     6.23482
      C   10   -0.16147      1.99902     4.12631    0.03614     6.16147
      C   11   -0.20210      1.99903     4.17935    0.02372     6.20210
      C   12   -0.02093      1.99871     3.98697    0.03526     6.02093
      C   13   -0.25173      1.99899     4.22548    0.02726     6.25173
      H   14    0.48661      0.00000     0.50659    0.00680     0.51339
      H   15    0.15950      0.00000     0.83747    0.00303     0.84050
      H   16    0.16033      0.00000     0.83662    0.00305     0.83967
      H   17    0.18626      0.00000     0.80978    0.00396     0.81374
      H   18    0.18883      0.00000     0.80726    0.00391     0.81117
      H   19    0.18002      0.00000     0.81754    0.00244     0.81998
      H   20    0.18662      0.00000     0.81112    0.00226     0.81338
      H   21    0.18018      0.00000     0.81739    0.00243     0.81982
      H   22    0.25419      0.00000     0.74218    0.00363     0.74581
     Cl   23   -0.03060      9.99965     7.01447    0.01648    17.03060
      H   24    0.29357      0.00000     0.69960    0.00683     0.70643
      C   25    1.09916      1.99918     2.85137    0.05029     4.90084
      H   26    0.22126      0.00000     0.77473    0.00401     0.77874
      F   27   -0.37163      1.99992     7.36490    0.00680     9.37163
      F   28   -0.37305      1.99992     7.36636    0.00677     9.37305
      F   29   -0.36724      1.99992     7.36053    0.00679     9.36724
      O   30   -0.81875      1.99977     6.79261    0.02637     8.81875
      O   31   -0.85464      1.99974     6.83117    0.02373     8.85464
      C   32    0.88239      1.99963     3.07140    0.04658     5.11761
      C   33   -0.46773      1.99941     4.44560    0.02272     6.46773
      C   34   -0.54655      1.99955     4.53083    0.01618     6.54655
      H   35    0.18437      0.00000     0.81234    0.00329     0.81563
      H   36    0.18465      0.00000     0.81207    0.00328     0.81535
      H   37    0.18697      0.00000     0.80987    0.00316     0.81303
      H   38    0.15936      0.00000     0.83751    0.00313     0.84064
      H   39    0.19095      0.00000     0.80595    0.00310     0.80905
 =======================================================================
   * Total *   -0.99931     53.98725   129.37903    0.63304   183.99931

 Normal termination of Gaussian 16 at Wed Apr 28 17:16:44 2021.
