 Gaussian 16, Revision C.01,
 Gaussian 16:  ES64L-G16RevC.01  3-Jul-2019

 ----------------------------------------------------------------------
 # DSDPBEP86/AUG-cc-PVTZ SCF=Tight INT(grid=ultrafine) Pop=NBO MaxDisk=
 1400000MB
 ----------------------------------------------------------------------

 --------------------------------------
 NM3CA_carboxy_c2.DSDPBEP86_AUG-cc-PVTZ
 --------------------------------------
 Symbolic Z-matrix:
 Charge = -1 Multiplicity = 1

                         Standard orientation:
 ---------------------------------------------------------------------
 Center     Atomic      Atomic             Coordinates (Angstroms)
 Number     Number       Type             X           Y           Z
 ---------------------------------------------------------------------
      1          6           0       -0.548898   -0.797574   -0.015567
      2          7           0        0.825077   -0.586519    0.015368
      3          6           0        1.764509   -1.557518    0.109460
      4          8           0        1.595835   -2.758188    0.198602
      5          8           0        2.995437   -0.998750    0.098143
      6          6           0        4.084139   -1.905974    0.180425
      7          6           0        5.356503   -1.082851    0.153125
      8          6           0        6.594368   -1.971668    0.230940
      9          6           0       -1.364698    0.346213    0.069290
     10          6           0       -2.738830    0.202629    0.007882
     11          6           0       -3.354493   -1.043086   -0.122105
     12          6           0       -2.527491   -2.147574   -0.189525
     13          6           0       -1.143306   -2.060527   -0.142022
     14          1           0        1.166869    0.416772   -0.110360
     15          1           0        4.043828   -2.607537   -0.659060
     16          1           0        4.006735   -2.493303    1.100913
     17          1           0        5.335747   -0.377045    0.987600
     18          1           0        5.367117   -0.483915   -0.761173
     19          1           0        6.600855   -2.562928    1.150898
     20          1           0        7.510622   -1.378313    0.212156
     21          1           0        6.634279   -2.669951   -0.609734
     22          1           0       -0.902157    1.323124    0.216711
     23         17           0       -3.258836   -3.735356   -0.356501
     24          1           0       -0.535616   -2.950223   -0.200079
     25          6           0       -3.614167    1.413198    0.152557
     26          1           0       -4.430676   -1.143552   -0.170919
     27          9           0       -4.765959    1.282307   -0.545111
     28          9           0       -3.985840    1.615727    1.432629
     29          9           0       -3.031117    2.534389   -0.266657
     30          8           0        0.264620    2.939364    0.877057
     31          8           0        1.692605    1.876253   -0.482527
     32          6           0        1.248667    2.895045    0.120703
     33          6           0        2.002020    4.216978   -0.121499
     34          6           0        3.272832    4.079335   -0.949417
     35          1           0        2.211782    4.651637    0.860565
     36          1           0        1.294378    4.901225   -0.601596
     37          1           0        3.977998    3.401156   -0.464766
     38          1           0        3.764662    5.047080   -1.093887
     39          1           0        3.049573    3.651427   -1.927764
 ---------------------------------------------------------------------

 SCF Done:  E(RDSDPBEP86) =  -1654.65737003     A.U. after   14 cycles
 E2(DSDPBEP86) =    -0.2218070424D+01 E(DSDPBEP86) =    -0.16568754404541D+04

 The electronic state is 1-A.
 Alpha  occ. eigenvalues -- -103.48024 -25.60941 -25.60548 -25.60456 -19.93956
 Alpha  occ. eigenvalues --  -19.87248 -19.80545 -19.79618 -14.98667 -10.98189
 Alpha  occ. eigenvalues --  -10.87130 -10.79489 -10.77873 -10.77801 -10.77016
 Alpha  occ. eigenvalues --  -10.75024 -10.73801 -10.73634 -10.73166 -10.72797
 Alpha  occ. eigenvalues --  -10.72007 -10.68500 -10.68309 -10.05523  -7.63189
 Alpha  occ. eigenvalues --   -7.62743  -7.62734  -1.47186  -1.37886  -1.37500
 Alpha  occ. eigenvalues --   -1.22983  -1.12504  -1.10764  -1.03158  -1.00718
 Alpha  occ. eigenvalues --   -0.98085  -0.92462  -0.88457  -0.84960  -0.81126
 Alpha  occ. eigenvalues --   -0.80897  -0.76709  -0.76602  -0.69210  -0.67118
 Alpha  occ. eigenvalues --   -0.65914  -0.64825  -0.63345  -0.63038  -0.61705
 Alpha  occ. eigenvalues --   -0.58383  -0.56351  -0.52843  -0.52650  -0.51971
 Alpha  occ. eigenvalues --   -0.51847  -0.51347  -0.49785  -0.48824  -0.47329
 Alpha  occ. eigenvalues --   -0.47033  -0.46750  -0.46386  -0.45531  -0.44691
 Alpha  occ. eigenvalues --   -0.43919  -0.43453  -0.42992  -0.42055  -0.41707
 Alpha  occ. eigenvalues --   -0.39967  -0.39648  -0.39027  -0.38476  -0.37940
 Alpha  occ. eigenvalues --   -0.36168  -0.35654  -0.35399  -0.34984  -0.34500
 Alpha  occ. eigenvalues --   -0.33759  -0.32733  -0.31585  -0.30290  -0.30157
 Alpha  occ. eigenvalues --   -0.29005  -0.28522  -0.21970  -0.21078  -0.20564
 Alpha  occ. eigenvalues --   -0.19587  -0.17821
 Alpha virt. eigenvalues --    0.07484   0.09109   0.09519   0.09682   0.09768
 Alpha virt. eigenvalues --    0.10797   0.11403   0.11518   0.11788   0.12445
 Alpha virt. eigenvalues --    0.12754   0.13064   0.13243   0.13676   0.13943

 Mulliken charges:
               1
     1  C    0.737414
     2  N   -0.146308
     3  C    0.232593
     4  O   -0.914162
     5  O   -0.275912
     6  C   -0.345553
     7  C   -0.475122
     8  C   -0.984970
     9  C   -1.272529
    10  C    0.668966
    11  C   -0.988433
    12  C    0.698892
    13  C   -0.911805
    14  H    0.734114
    15  H    0.321432
    16  H    0.336877
    17  H    0.218788
    18  H    0.230852
    19  H    0.275212
    20  H    0.279315
    21  H    0.276586
    22  H    0.785239
    23  Cl  -0.480786
    24  H    0.563072
    25  C    1.290739
    26  H    0.430332
    27  F   -0.427293
    28  F   -0.401396
    29  F   -0.368189
    30  O   -0.954385
    31  O   -0.785229
    32  C    0.512168
    33  C   -0.180576
    34  C   -0.963621
    35  H    0.235243
    36  H    0.193024
    37  H    0.329383
    38  H    0.260843
    39  H    0.265182
 Sum of Mulliken charges =  -1.00000

 Dipole moment (field-independent basis, Debye):
    X=              1.7425    Y=             -4.0292    Z=             -1.0183  Tot=              4.5064
 Quadrupole moment (field-independent basis, Debye-Ang):
   XX=           -169.2422   YY=           -187.9663   ZZ=           -149.1973
   XY=             -5.4456   XZ=              3.2838   YZ=             -3.6636

 Summary of Natural Population Analysis:

                                       Natural Population
                Natural  -----------------------------------------------
    Atom  No    Charge         Core      Valence    Rydberg      Total
 -----------------------------------------------------------------------
      C    1    0.21931      1.99910     3.75302    0.02858     5.78069
      N    2   -0.69436      1.99931     5.66564    0.02942     7.69436
      C    3    1.01215      1.99946     2.95499    0.03340     4.98785
      O    4   -0.73948      1.99975     6.70781    0.03191     8.73948
      O    5   -0.56832      1.99973     6.54373    0.02485     8.56832
      C    6    0.01073      1.99932     3.96406    0.02589     5.98927
      C    7   -0.37596      1.99950     4.35509    0.02138     6.37596
      C    8   -0.54849      1.99953     4.53398    0.01498     6.54849
      C    9   -0.21188      1.99909     4.18920    0.02360     6.21188
      C   10   -0.13514      1.99898     4.10639    0.02977     6.13514
      C   11   -0.30601      1.99909     4.25365    0.05327     6.30601
      C   12    0.12116      1.99863     3.84263    0.03757     5.87884
      C   13   -0.32261      1.99909     4.26956    0.05396     6.32261
      H   14    0.48652      0.00000     0.50634    0.00713     0.51348
      H   15    0.15927      0.00000     0.83767    0.00305     0.84073
      H   16    0.16024      0.00000     0.83669    0.00307     0.83976
      H   17    0.18644      0.00000     0.80959    0.00397     0.81356
      H   18    0.18847      0.00000     0.80758    0.00394     0.81153
      H   19    0.18007      0.00000     0.81748    0.00244     0.81993
      H   20    0.18663      0.00000     0.81110    0.00226     0.81337
      H   21    0.18005      0.00000     0.81751    0.00244     0.81995
      H   22    0.29005      0.00000     0.70493    0.00502     0.70995
     Cl   23   -0.05517      9.99967     7.03424    0.02126    17.05517
      H   24    0.25617      0.00000     0.73994    0.00389     0.74383
      C   25    1.09817      1.99920     2.85231    0.05032     4.90183
      H   26    0.21991      0.00000     0.77591    0.00418     0.78009
      F   27   -0.38086      1.99993     7.37413    0.00680     9.38086
      F   28   -0.37072      1.99992     7.36386    0.00694     9.37072
      F   29   -0.34792      1.99992     7.34069    0.00731     9.34792
      O   30   -0.81741      1.99978     6.79085    0.02678     8.81741
      O   31   -0.85366      1.99975     6.82998    0.02394     8.85366
      C   32    0.88091      1.99963     3.07286    0.04660     5.11909
      C   33   -0.46754      1.99941     4.44535    0.02279     6.46754
      C   34   -0.54647      1.99955     4.53074    0.01617     6.54647
      H   35    0.18453      0.00000     0.81217    0.00330     0.81547
      H   36    0.18527      0.00000     0.81141    0.00332     0.81473
      H   37    0.18610      0.00000     0.81074    0.00317     0.81390
      H   38    0.15948      0.00000     0.83740    0.00313     0.84052
      H   39    0.19172      0.00000     0.80517    0.00311     0.80828
 =======================================================================
   * Total *   -0.99866     53.98734   129.31642    0.69490   183.99866

 Normal termination of Gaussian 16 at Wed Apr 28 17:28:51 2021.
