 Gaussian 16, Revision C.01,

 ----------------------------------------------------------------------
 # M062X/6-311+G* SCF=Tight INT(grid=ultrafine) OPT=CalcFC IOP(2/17=4)
 EmpiricalDispersion=GD3 SCRF=(SMD,Solvent=h2o) MaxDisk=10000MB
 ----------------------------------------------------------------------

 --------------------------------------------
 29CA_carboxy_c2.M062X_6-311pGd_opt_water_GD3
 --------------------------------------------
 Symbolic Z-matrix:
 Charge = -1 Multiplicity = 1

 SCF Done:  E(RM062X) =  -1658.53871766     A.U. after   15 cycles
 SCF Done:  E(RM062X) =  -1658.56681207     A.U. after   15 cycles
 SCF Done:  E(RM062X) =  -1658.59164801     A.U. after   15 cycles
 SCF Done:  E(RM062X) =  -1658.59491712     A.U. after   16 cycles
 SCF Done:  E(RM062X) =  -1658.51331986     A.U. after   15 cycles
 SCF Done:  E(RM062X) =  -1658.54355762     A.U. after   14 cycles
 SCF Done:  E(RM062X) =  -1658.59429189     A.U. after   12 cycles
 SCF Done:  E(RM062X) =  -1658.59553910     A.U. after   11 cycles
 SCF Done:  E(RM062X) =  -1658.59628520     A.U. after   13 cycles
 SCF Done:  E(RM062X) =  -1658.59717810     A.U. after   16 cycles
 SCF Done:  E(RM062X) =  -1658.60710248     A.U. after    9 cycles
 SCF Done:  E(RM062X) =  -1658.60716215     A.U. after   14 cycles
 SCF Done:  E(RM062X) =  -1658.60710276     A.U. after   11 cycles
 SCF Done:  E(RM062X) =  -1658.60710289     A.U. after    9 cycles
 SCF Done:  E(RM062X) =  -1658.60716274     A.U. after   14 cycles
 SCF Done:  E(RM062X) =  -1658.60710290     A.U. after   11 cycles
 SCF Done:  E(RM062X) =  -1658.60710295     A.U. after    9 cycles
 SCF Done:  E(RM062X) =  -1658.60716287     A.U. after   14 cycles
 SCF Done:  E(RM062X) =  -1658.60710301     A.U. after   11 cycles
 Optimization completed.
    -- Stationary point found.
 Normal termination of Gaussian 16 at Mon Mar 22 14:35:10 2021.
 Gaussian 16:  ES64L-G16RevC.01  3-Jul-2019

 ----------------------------------------------------------------------
 # M062X/6-311+G* SCF=Tight INT(grid=ultrafine) EmpiricalDispersion=GD3
  SCRF=(SMD,Solvent=h2o) Freq=Noraman MaxDisk=10000MB geom=check guess=
 read IOP(2/17=4)
 ----------------------------------------------------------------------

 --------------------------------------------
 29CA_carboxy_c2.M062X_6-311pGd_opt_water_GD3
 --------------------------------------------
 Structure from the checkpoint file:  "29CA_carboxy_c2.M062X_6-311pGd_opt_water_GD3.chk"
 Charge = -1 Multiplicity = 1

                         Standard orientation:
 ---------------------------------------------------------------------
 Center     Atomic      Atomic             Coordinates (Angstroms)
 Number     Number       Type             X           Y           Z
 ---------------------------------------------------------------------
      1          6           0       -0.416334   -1.108816   -0.107743
      2          7           0        0.957038   -0.844840   -0.087629
      3          6           0        1.953248   -1.754484    0.051821
      4          8           0        1.826165   -2.958141    0.193493
      5          8           0        3.142853   -1.133222    0.018671
      6          6           0        4.306132   -1.971007    0.164129
      7          6           0        5.522284   -1.074449    0.099786
      8          6           0        6.799979   -1.894414    0.239734
      9          6           0       -1.261804   -0.004196    0.042551
     10          6           0       -2.638572   -0.157724    0.011329
     11          6           0       -3.190616   -1.427337   -0.169073
     12          6           0       -2.358561   -2.523409   -0.322226
     13          6           0       -0.976548   -2.373310   -0.296837
     14          1           0        1.245586    0.146162   -0.135500
     15          1           0        4.310626   -2.708508   -0.641551
     16          1           0        4.245444   -2.494685    1.120646
     17          1           0        5.459818   -0.329001    0.897363
     18          1           0        5.519325   -0.535671   -0.851791
     19          1           0        6.821884   -2.430514    1.191946
     20          1           0        7.681590   -1.252749    0.197362
     21          1           0        6.884360   -2.632158   -0.562280
     22          1           0       -0.826264    0.978968    0.192042
     23          6           0       -3.511074    1.054461    0.181127
     24         17           0       -4.917950   -1.672075   -0.211833
     25          1           0       -2.788163   -3.506646   -0.470433
     26          1           0       -0.350622   -3.241851   -0.433653
     27          9           0       -2.794890    2.172588    0.348959
     28          9           0       -4.305487    1.262732   -0.883371
     29          9           0       -4.320485    0.953050    1.249792
     30          8           0        0.347048    2.914414    0.772732
     31          8           0        1.902160    1.784212   -0.358585
     32          6           0        1.427886    2.846617    0.131789
     33          6           0        2.204313    4.147282   -0.059502
     34          6           0        3.517788    4.013065   -0.813722
     35          1           0        2.369175    4.569282    0.936507
     36          1           0        1.533255    4.845636   -0.569204
     37          1           0        4.203581    3.336521   -0.299426
     38          1           0        4.010185    4.983880   -0.904096
     39          1           0        3.359326    3.623377   -1.821245
 ---------------------------------------------------------------------

 SCF Done:  E(RM062X) =  -1658.60710301     A.U. after    1 cycles

 The electronic state is 1-A.
 Alpha  occ. eigenvalues -- -102.68738 -25.28647 -25.28340 -25.28336 -19.66955
 Alpha  occ. eigenvalues --  -19.61413 -19.57687 -19.57063 -14.78195 -10.81299
 Alpha  occ. eigenvalues --  -10.70810 -10.63538 -10.62151 -10.60900 -10.58878
 Alpha  occ. eigenvalues --  -10.58693 -10.56475 -10.56463 -10.55888 -10.52872
 Alpha  occ. eigenvalues --  -10.52307 -10.51775 -10.51274  -9.83015  -7.55528
 Alpha  occ. eigenvalues --   -7.54851  -7.54841  -1.47916  -1.38513  -1.38200
 Alpha  occ. eigenvalues --   -1.24880  -1.16255  -1.14959  -1.06821  -1.06203
 Alpha  occ. eigenvalues --   -1.01436  -0.95008  -0.90357  -0.89054  -0.85561
 Alpha  occ. eigenvalues --   -0.85053  -0.81659  -0.78707  -0.74504  -0.72467
 Alpha  occ. eigenvalues --   -0.71956  -0.70334  -0.70261  -0.69445  -0.67188
 Alpha  occ. eigenvalues --   -0.64703  -0.64126  -0.59557  -0.58979  -0.58638
 Alpha  occ. eigenvalues --   -0.58477  -0.58320  -0.57548  -0.55865  -0.54705
 Alpha  occ. eigenvalues --   -0.54246  -0.53411  -0.53035  -0.52834  -0.52635
 Alpha  occ. eigenvalues --   -0.52153  -0.51861  -0.50694  -0.49959  -0.49112
 Alpha  occ. eigenvalues --   -0.48803  -0.46619  -0.46118  -0.45996  -0.44812
 Alpha  occ. eigenvalues --   -0.44472  -0.43821  -0.42911  -0.42510  -0.41416
 Alpha  occ. eigenvalues --   -0.39875  -0.39830  -0.39419  -0.38985  -0.38012
 Alpha  occ. eigenvalues --   -0.37416  -0.37203  -0.33591  -0.33560  -0.32793
 Alpha  occ. eigenvalues --   -0.31908  -0.28197
 Alpha virt. eigenvalues --   -0.01047   0.00032   0.01340   0.02025   0.02692
 Alpha virt. eigenvalues --    0.02968   0.03400   0.03707   0.04054   0.04521
 Alpha virt. eigenvalues --    0.04962   0.05282   0.05523   0.06157   0.06578

 Mulliken charges:
               1
     1  C   -0.095286
     2  N   -0.513019
     3  C    0.089433
     4  O   -0.448129
     5  O   -0.103989
     6  C   -0.371159
     7  C   -0.136379
     8  C   -1.128324
     9  C   -0.491173
    10  C   -0.378777
    11  C   -0.086464
    12  C   -0.383497
    13  C   -0.261108
    14  H    0.541729
    15  H    0.284170
    16  H    0.282723
    17  H    0.274880
    18  H    0.273805
    19  H    0.272361
    20  H    0.283944
    21  H    0.272386
    22  H    0.362947
    23  C    0.614008
    24  Cl   0.445566
    25  H    0.317827
    26  H    0.316154
    27  F   -0.150407
    28  F   -0.061381
    29  F   -0.059205
    30  O   -0.607561
    31  O   -0.596003
    32  C    0.225111
    33  C   -0.403347
    34  C   -0.964680
    35  H    0.286797
    36  H    0.285293
    37  H    0.265218
    38  H    0.276369
    39  H    0.269169
 Sum of Mulliken charges =  -1.00000

 Dipole moment (field-independent basis, Debye):
    X=              2.3368    Y=             -7.2572    Z=             -1.9107  Tot=              7.8599
 Quadrupole moment (field-independent basis, Debye-Ang):
   XX=           -157.5365   YY=           -167.2090   ZZ=           -148.1920
   XY=              3.2238   XZ=              4.0123   YZ=             -2.9696

  Exact polarizability:     351.442      -4.425     287.100      -4.876       9.798     197.371
 Approx polarizability:     282.310      -1.777     248.145      -3.678       8.530     176.938

                      1                      2                      3
                      A                      A                      A
 Frequencies --     13.1718                22.2853                30.6798
 Red. masses --      6.0433                 4.7038                 5.7567
 Frc consts  --      0.0006                 0.0014                 0.0032
 IR Inten    --      0.0769                 4.0860                 0.1899

                      4                      5                      6
                      A                      A                      A
 Frequencies --     33.9950                39.9787                51.1622
 Red. masses --      3.7111                 3.6454                 2.3736
 Frc consts  --      0.0025                 0.0034                 0.0037
 IR Inten    --      0.7094                 2.4456                 7.4502

                      7                      8                      9
                      A                      A                      A
 Frequencies --     57.7225                61.0520                65.0015
 Red. masses --      3.4942                 7.7290                 8.2504
 Frc consts  --      0.0069                 0.0170                 0.0205
 IR Inten    --      5.2871                 8.8688                13.5365

                     10                     11                     12
                      A                      A                      A
 Frequencies --     72.9780                75.1043                96.6854
 Red. masses --      6.1881                 6.7469                 3.5105
 Frc consts  --      0.0194                 0.0224                 0.0193
 IR Inten    --      8.7843                 1.0543                 8.7408

                     13                     14                     15
                      A                      A                      A
 Frequencies --    107.7712               115.0557               141.1785
 Red. masses --      6.5170                 5.2377                 7.0405
 Frc consts  --      0.0446                 0.0409                 0.0827
 IR Inten    --     19.4968                 0.5591                 2.7843

                     16                     17                     18
                      A                      A                      A
 Frequencies --    150.5903               170.5442               176.4438
 Red. masses --      6.7516                 6.0511                 5.0069
 Frc consts  --      0.0902                 0.1037                 0.0918
 IR Inten    --      3.3836                 6.4521                 4.5995

                     19                     20                     21
                      A                      A                      A
 Frequencies --    215.6625               242.7517               255.1048
 Red. masses --      7.6499                 1.1270                 4.8113
 Frc consts  --      0.2096                 0.0391                 0.1845
 IR Inten    --      2.6393                 0.0499                 1.3258

                     22                     23                     24
                      A                      A                      A
 Frequencies --    256.5132               306.4139               307.5728
 Red. masses --      1.1235                 4.4589                10.9545
 Frc consts  --      0.0436                 0.2467                 0.6106
 IR Inten    --      1.1045                 8.5748                 9.5899

                     25                     26                     27
                      A                      A                      A
 Frequencies --    318.3982               347.6283               358.1308
 Red. masses --      7.2496                 5.2673                 5.5279
 Frc consts  --      0.4330                 0.3750                 0.4177
 IR Inten    --      0.5619                10.5818                16.4079

                     28                     29                     30
                      A                      A                      A
 Frequencies --    368.0317               427.5144               467.6712
 Red. masses --      7.8780                 6.8582                 4.4912
 Frc consts  --      0.6287                 0.7385                 0.5787
 IR Inten    --      4.8036                21.4636                 4.7806

                     31                     32                     33
                      A                      A                      A
 Frequencies --    471.0932               512.7010               529.0505
 Red. masses --      5.5720                 5.5324                 7.3277
 Frc consts  --      0.7286                 0.8568                 1.2084
 IR Inten    --      4.3865                14.8620                42.6920

                     34                     35                     36
                      A                      A                      A
 Frequencies --    542.5970               581.1249               602.7270
 Red. masses --      7.1071                 1.8933                 9.5769
 Frc consts  --      1.2328                 0.3767                 2.0498
 IR Inten    --     19.8783                 4.7953                 4.6697

                     37                     38                     39
                      A                      A                      A
 Frequencies --    649.2123               653.9823               669.2963
 Red. masses --      4.9283                 4.7877                 8.3785
 Frc consts  --      1.2238                 1.2065                 2.2113
 IR Inten    --      4.7835                56.9740                25.4266

                     40                     41                     42
                      A                      A                      A
 Frequencies --    707.5681               735.3714               758.7506
 Red. masses --      7.3592                 4.8019                10.2131
 Frc consts  --      2.1708                 1.5299                 3.4642
 IR Inten    --     13.9081                 1.7240                 6.3976

                     43                     44                     45
                      A                      A                      A
 Frequencies --    763.0792               789.2745               807.1739
 Red. masses --      1.1108                 7.8947                 8.3299
 Frc consts  --      0.3811                 2.8976                 3.1976
 IR Inten    --     18.4263                68.6877                41.3341

                     46                     47                     48
                      A                      A                      A
 Frequencies --    820.2558               836.5117               850.9235
 Red. masses --      1.4992                 1.1595                 1.3799
 Frc consts  --      0.5943                 0.4780                 0.5887
 IR Inten    --     19.4337               220.1238                12.4531

                     49                     50                     51
                      A                      A                      A
 Frequencies --    885.3320               906.8610               917.5543
 Red. masses --      3.5760                 1.1467                 2.7434
 Frc consts  --      1.6514                 0.5556                 1.3608
 IR Inten    --     51.6001                 3.4946                50.2598

                     52                     53                     54
                      A                      A                      A
 Frequencies --    939.0344               942.8777               988.6827
 Red. masses --      1.6690                 1.9089                 1.3378
 Frc consts  --      0.8671                 0.9998                 0.7705
 IR Inten    --     58.0188                57.9590                 3.7693

                     55                     56                     57
                      A                      A                      A
 Frequencies --   1013.8775              1024.6920              1045.3421
 Red. masses --      7.5537                 1.6471                 6.0103
 Frc consts  --      4.5749                 1.0190                 3.8696
 IR Inten    --     16.8805                20.4271                47.4045

                     58                     59                     60
                      A                      A                      A
 Frequencies --   1075.7098              1109.2457              1111.0957
 Red. masses --      2.3994                 1.7991                 2.3214
 Frc consts  --      1.6358                 1.3043                 1.6885
 IR Inten    --      5.1865                 2.3065                22.7853

                     61                     62                     63
                      A                      A                      A
 Frequencies --   1119.1529              1149.0413              1153.4700
 Red. masses --      8.2601                12.5225                 2.3549
 Frc consts  --      6.0956                 9.7412                 1.8460
 IR Inten    --    185.6261               457.2613               246.7145

                     64                     65                     66
                      A                      A                      A
 Frequencies --   1158.7622              1163.6957              1190.3332
 Red. masses --      2.0073                 2.3208                 1.6547
 Frc consts  --      1.5880                 1.8517                 1.3814
 IR Inten    --     96.5655                45.1376                 1.4893

                     67                     68                     69
                      A                      A                      A
 Frequencies --   1195.9161              1270.2831              1280.2593
 Red. masses --      3.2528                 3.5175                 3.7392
 Frc consts  --      2.7410                 3.3442                 3.6110
 IR Inten    --    555.1928              1075.0326               208.0016

                     70                     71                     72
                      A                      A                      A
 Frequencies --   1286.4128              1294.1064              1310.7223
 Red. masses --      1.1842                 1.1685                 1.5514
 Frc consts  --      1.1546                 1.1530                 1.5703
 IR Inten    --      2.6679                 0.7975                25.8033

                     73                     74                     75
                      A                      A                      A
 Frequencies --   1334.3054              1334.6077              1337.6447
 Red. masses --      1.0910                 1.7381                 2.5497
 Frc consts  --      1.1444                 1.8240                 2.6880
 IR Inten    --      3.9162                92.0197                68.4939

                     76                     77                     78
                      A                      A                      A
 Frequencies --   1348.0462              1371.1474              1415.8141
 Red. masses --      1.9598                 3.0167                 1.3703
 Frc consts  --      2.0984                 3.3415                 1.6184
 IR Inten    --     71.9548               569.9268                63.1394

                     79                     80                     81
                      A                      A                      A
 Frequencies --   1417.1261              1441.8188              1442.8307
 Red. masses --      1.2763                 2.0236                 1.6511
 Frc consts  --      1.5102                 2.4785                 2.0252
 IR Inten    --      9.5705               287.4610                90.6948

                     82                     83                     84
                      A                      A                      A
 Frequencies --   1460.8993              1462.7390              1483.5532
 Red. masses --      2.2158                 2.1605                 1.0641
 Frc consts  --      2.7862                 2.7235                 1.3799
 IR Inten    --     50.7173                55.4739                 1.0372

                     85                     86                     87
                      A                      A                      A
 Frequencies --   1500.5429              1501.6030              1505.3387
 Red. masses --      1.0380                 1.0378                 1.0847
 Frc consts  --      1.3770                 1.3787                 1.4482
 IR Inten    --     13.0784                13.7946                78.5584

                     88                     89                     90
                      A                      A                      A
 Frequencies --   1508.6869              1522.5957              1540.3314
 Red. masses --      1.0917                 1.0973                 3.2305
 Frc consts  --      1.4640                 1.4988                 4.5159
 IR Inten    --      3.6307                31.8487               220.4583

                     91                     92                     93
                      A                      A                      A
 Frequencies --   1542.0162              1617.2654              1672.3283
 Red. masses --      7.3886                 2.6248                 2.8505
 Frc consts  --     10.3512                 4.0450                 4.6969
 IR Inten    --   1469.1094               929.8040                93.1741

                     94                     95                     96
                      A                      A                      A
 Frequencies --   1679.8835              1728.8831              3069.9801
 Red. masses --      6.2256                 8.0285                 1.0370
 Frc consts  --     10.3512                14.1390                 5.7584
 IR Inten    --    148.5897               828.4985                31.5539

                     97                     98                     99
                      A                      A                      A
 Frequencies --   3073.8221              3077.3777              3079.2791
 Red. masses --      1.0373                 1.0617                 1.0602
 Frc consts  --      5.7743                 5.9241                 5.9232
 IR Inten    --     46.7087                21.2668                20.1036

                    100                    101                    102
                      A                      A                      A
 Frequencies --   3094.4955              3110.1531              3114.4703
 Red. masses --      1.0568                 1.1014                 1.1043
 Frc consts  --      5.9624                 6.2773                 6.3109
 IR Inten    --     61.5513                 7.7077                 1.3234

                    103                    104                    105
                      A                      A                      A
 Frequencies --   3137.4397              3141.9623              3147.0844
 Red. masses --      1.1050                 1.1025                 1.1037
 Frc consts  --      6.4083                 6.4127                 6.4404
 IR Inten    --     27.1173                60.7156                58.6264

                    106                    107                    108
                      A                      A                      A
 Frequencies --   3148.2962              3151.6798              3186.1396
 Red. masses --      1.1024                 1.1099                 1.0902
 Frc consts  --      6.4378                 6.4954                 6.5207
 IR Inten    --     40.9980                92.8005              1474.7652

                    109                    110                    111
                      A                      A                      A
 Frequencies --   3203.6107              3237.2692              3286.1322
 Red. masses --      1.0944                 1.0932                 1.0929
 Frc consts  --      6.6176                 6.7501                 6.9537
 IR Inten    --    303.8132                 0.6593                 5.1887

 - Thermochemistry -
 -------------------
 Temperature   298.150 Kelvin.  Pressure   1.00000 Atm.
 Atom     1 has atomic number  6 and mass  12.00000

 Molecular mass:   354.07200 amu.
 Principal axes and moments of inertia in atomic units:
                           1         2         3
     Eigenvalues --  5918.58934********************
           X            0.99999   0.00428   0.00010
           Y           -0.00428   0.99996  -0.00740
           Z           -0.00013   0.00740   0.99997
 This molecule is an asymmetric top.
 Rotational symmetry number  1.
 Warning -- assumption of classical behavior for rotation
           may cause significant error
 Rotational temperatures (Kelvin)      0.01463     0.00571     0.00423
 Rotational constants (GHZ):           0.30493     0.11907     0.08815
 Zero-point vibrational energy     769169.8 (Joules/Mol)
                                  183.83599 (Kcal/Mol)
 Warning -- explicit consideration of  36 degrees of freedom as
           vibrations may cause significant error
 Vibrational temperatures:     18.95    32.06    44.14    48.91    57.52
          (Kelvin)             73.61    83.05    87.84    93.52   105.00
                              108.06   139.11   155.06   165.54   203.12
                              216.67   245.38   253.86   310.29   349.27
                              367.04   369.07   440.86   442.53   458.10
                              500.16   515.27   529.52   615.10   672.87
                              677.80   737.66   761.19   780.68   836.11
                              867.19   934.07   940.93   962.97  1018.03
                             1058.04  1091.67  1097.90  1135.59  1161.34
                             1180.17  1203.55  1224.29  1273.80  1304.77
                             1320.16  1351.06  1356.59  1422.49  1458.74
                             1474.30  1504.01  1547.71  1595.96  1598.62
                             1610.21  1653.21  1659.59  1667.20  1674.30
                             1712.62  1720.66  1827.65  1842.01  1850.86
                             1861.93  1885.84  1919.77  1920.20  1924.57
                             1939.54  1972.78  2037.04  2038.93  2074.46
                             2075.91  2101.91  2104.56  2134.50  2158.95
                             2160.47  2165.85  2170.66  2190.68  2216.19
                             2218.62  2326.88  2406.11  2416.98  2487.48
                             4417.02  4422.54  4427.66  4430.40  4452.29
                             4474.82  4481.03  4514.08  4520.58  4527.95
                             4529.70  4534.56  4584.14  4609.28  4657.71
                             4728.01

 Zero-point correction=                           0.292961 (Hartree/Particle)
 Thermal correction to Energy=                    0.317647
 Thermal correction to Enthalpy=                  0.318591
 Thermal correction to Gibbs Free Energy=         0.232599
 Sum of electronic and zero-point Energies=          -1658.314142
 Sum of electronic and thermal Energies=             -1658.289456
 Sum of electronic and thermal Enthalpies=           -1658.288512
 Sum of electronic and thermal Free Energies=        -1658.374504

                     E (Thermal)             CV                S
                      KCal/Mol        Cal/Mol-Kelvin    Cal/Mol-Kelvin
 Total                  199.326             85.367            180.986
 Electronic               0.000              0.000              0.000
 Translational            0.889              2.981             43.487
 Rotational               0.889              2.981             35.861
 Vibrational            197.549             79.405            101.638
 Vibration     1          0.593              1.987              7.464
 Vibration     2          0.593              1.985              6.419
 Vibration     3          0.594              1.984              5.785
 Vibration     4          0.594              1.983              5.581
 Vibration     5          0.594              1.981              5.260
 Vibration     6          0.595              1.977              4.772
 Vibration     7          0.596              1.974              4.534
 Vibration     8          0.597              1.973              4.423
 Vibration     9          0.597              1.971              4.299
 Vibration    10          0.599              1.967              4.071
 Vibration    11          0.599              1.966              4.015
 Vibration    12          0.603              1.952              3.520
 Vibration    13          0.606              1.943              3.309
 Vibration    14          0.608              1.937              3.182
 Vibration    15          0.615              1.912              2.788
 Vibration    16          0.618              1.902              2.665
 Vibration    17          0.626              1.879              2.429
 Vibration    18          0.628              1.871              2.366
 Vibration    19          0.645              1.817              1.995
 Vibration    20          0.659              1.775              1.783
 Vibration    21          0.665              1.754              1.695
 Vibration    22          0.666              1.752              1.685
 Vibration    23          0.697              1.662              1.382
 Vibration    24          0.697              1.659              1.375
 Vibration    25          0.705              1.638              1.318
 Vibration    26          0.725              1.580              1.177
 Vibration    27          0.733              1.559              1.130
 Vibration    28          0.741              1.538              1.088
 Vibration    29          0.789              1.410              0.867
 Vibration    30          0.825              1.322              0.744
 Vibration    31          0.828              1.314              0.734
 Vibration    32          0.868              1.222              0.627
 Vibration    33          0.884              1.186              0.589
 Vibration    34          0.898              1.156              0.560
 Vibration    35          0.938              1.072              0.483
 Vibration    36          0.961              1.026              0.445

 Optimization completed.
    -- Stationary point found.
 Normal termination of Gaussian 16 at Mon Mar 22 22:32:34 2021.
