 Gaussian 16, Revision C.01,

 ----------------------------------------------------------------------
 # M062X/6-311+G* SCF=Tight INT(grid=ultrafine) OPT=CalcFC IOP(2/17=4)
 EmpiricalDispersion=GD3 MaxDisk=10000MB
 ----------------------------------------------------------------------

 -----------------------------------
 29CA_carboxy.M062X_6-311pGd_opt_GD3
 -----------------------------------
 Symbolic Z-matrix:
 Charge = -1 Multiplicity = 1

 SCF Done:  E(RM062X) =  -1658.45295837     A.U. after   16 cycles
 SCF Done:  E(RM062X) =  -1658.47971931     A.U. after   14 cycles
 SCF Done:  E(RM062X) =  -1658.50896568     A.U. after   15 cycles
 SCF Done:  E(RM062X) =  -1658.51397393     A.U. after   15 cycles
 SCF Done:  E(RM062X) =  -1658.51899786     A.U. after   16 cycles
 SCF Done:  E(RM062X) =  -1658.52240902     A.U. after   16 cycles
 SCF Done:  E(RM062X) =  -1658.51722641     A.U. after   16 cycles
 SCF Done:  E(RM062X) =  -1658.51518424     A.U. after   14 cycles
 SCF Done:  E(RM062X) =  -1658.51916484     A.U. after   14 cycles
 SCF Done:  E(RM062X) =  -1658.52421392     A.U. after   11 cycles
 SCF Done:  E(RM062X) =  -1658.52837910     A.U. after   11 cycles
 SCF Done:  E(RM062X) =  -1658.52837931     A.U. after   11 cycles
 SCF Done:  E(RM062X) =  -1658.52837935     A.U. after   11 cycles
 SCF Done:  E(RM062X) =  -1658.52837937     A.U. after   10 cycles
 SCF Done:  E(RM062X) =  -1658.52837938     A.U. after   10 cycles
 SCF Done:  E(RM062X) =  -1658.52837941     A.U. after    9 cycles
 SCF Done:  E(RM062X) =  -1658.52837943     A.U. after   10 cycles
 SCF Done:  E(RM062X) =  -1658.52837944     A.U. after    9 cycles
 SCF Done:  E(RM062X) =  -1658.52837944     A.U. after    9 cycles
 Optimization completed.
    -- Stationary point found.
 Normal termination of Gaussian 16 at Mon Mar 22 13:25:32 2021.
 Gaussian 16:  ES64L-G16RevC.01  3-Jul-2019

 ----------------------------------------------------------------------
 # M062X/6-311+G* SCF=Tight INT(grid=ultrafine) EmpiricalDispersion=GD3
  Freq=Noraman MaxDisk=10000MB geom=check guess=read IOP(2/17=4)
 ----------------------------------------------------------------------

 -----------------------------------
 29CA_carboxy.M062X_6-311pGd_opt_GD3
 -----------------------------------
 Structure from the checkpoint file:  "29CA_carboxy.M062X_6-311pGd_opt_GD3.chk"
 Charge = -1 Multiplicity = 1

                         Standard orientation:
 ---------------------------------------------------------------------
 Center     Atomic      Atomic             Coordinates (Angstroms)
 Number     Number       Type             X           Y           Z
 ---------------------------------------------------------------------
      1          6           0       -0.457110   -0.132279   -0.000053
      2          7           0        0.886967    0.236835   -0.000068
      3          6           0        1.358391    1.505927    0.000005
      4          8           0        0.719580    2.539925    0.000107
      5          8           0        2.710025    1.487775   -0.000051
      6          6           0        3.342912    2.758800    0.000019
      7          6           0        4.838697    2.514274   -0.000089
      8          6           0        5.615606    3.827597   -0.000022
      9          6           0       -1.524078    0.774058   -0.000010
     10          6           0       -2.838197    0.309071   -0.000015
     11          6           0       -3.096794   -1.058677   -0.000043
     12          6           0       -2.039304   -1.958689   -0.000083
     13          6           0       -0.730512   -1.508412   -0.000091
     14          1           0        1.593255   -0.546220   -0.000160
     15          1           0        3.030066    3.326561    0.882117
     16          1           0        3.029962    3.326710   -0.881945
     17          1           0        5.095959    1.913216   -0.876078
     18          1           0        5.096061    1.913064    0.875765
     19          1           0        5.377908    4.428863   -0.882002
     20          1           0        6.692996    3.651157   -0.000098
     21          1           0        5.378008    4.428714    0.882086
     22          1           0       -1.329433    1.835112    0.000020
     23          6           0       -3.960831    1.307721    0.000050
     24         17           0       -4.730568   -1.687647    0.000000
     25          1           0       -2.241327   -3.023086   -0.000105
     26          1           0        0.087557   -2.231138   -0.000119
     27          9           0       -3.517454    2.573473    0.000070
     28          9           0       -4.757786    1.186766   -1.077940
     29          9           0       -4.757719    1.186704    1.078080
     30          8           0        1.571319   -3.678091   -0.000022
     31          8           0        2.715663   -1.746953   -0.000318
     32          6           0        2.617253   -3.004818   -0.000086
     33          6           0        3.942839   -3.794098    0.000079
     34          6           0        5.196029   -2.928797    0.000354
     35          1           0        3.920526   -4.455902   -0.871804
     36          1           0        3.920240   -4.456079    0.871816
     37          1           0        5.214230   -2.276718   -0.874571
     38          1           0        6.105447   -3.539030    0.000444
     39          1           0        5.213965   -2.276879    0.875407
 ---------------------------------------------------------------------

 SCF Done:  E(RM062X) =  -1658.52837944     A.U. after    2 cycles

 The electronic state is 1-A.
 Alpha  occ. eigenvalues -- -102.58807 -25.18771 -25.18349 -25.18348 -19.55978
 Alpha  occ. eigenvalues --  -19.49876 -19.42878 -19.42020 -14.66156 -10.71251
 Alpha  occ. eigenvalues --  -10.59093 -10.51701 -10.50279 -10.49723 -10.48932
 Alpha  occ. eigenvalues --  -10.48343 -10.45946 -10.45868 -10.45645 -10.45569
 Alpha  occ. eigenvalues --  -10.44152 -10.40637 -10.40452  -9.73087  -7.45596
 Alpha  occ. eigenvalues --   -7.44927  -7.44924  -1.37907  -1.28517  -1.28164
 Alpha  occ. eigenvalues --   -1.13928  -1.03839  -1.01592  -0.94976  -0.91973
 Alpha  occ. eigenvalues --   -0.90875  -0.84440  -0.81392  -0.79445  -0.74492
 Alpha  occ. eigenvalues --   -0.73717  -0.71808  -0.69861  -0.64049  -0.62504
 Alpha  occ. eigenvalues --   -0.60739  -0.60231  -0.59979  -0.59282  -0.57735
 Alpha  occ. eigenvalues --   -0.54562  -0.52885  -0.49208  -0.48602  -0.48548
 Alpha  occ. eigenvalues --   -0.48251  -0.46973  -0.45556  -0.45255  -0.44263
 Alpha  occ. eigenvalues --   -0.44049  -0.43282  -0.43207  -0.42189  -0.41226
 Alpha  occ. eigenvalues --   -0.41082  -0.40320  -0.39327  -0.39170  -0.38706
 Alpha  occ. eigenvalues --   -0.37371  -0.36803  -0.35749  -0.35238  -0.34773
 Alpha  occ. eigenvalues --   -0.33166  -0.33159  -0.32785  -0.32304  -0.31754
 Alpha  occ. eigenvalues --   -0.31737  -0.29758  -0.28877  -0.27637  -0.27409
 Alpha  occ. eigenvalues --   -0.26718  -0.25734  -0.22641  -0.18297  -0.18134
 Alpha  occ. eigenvalues --   -0.16880  -0.16805
 Alpha virt. eigenvalues --    0.08189   0.09691   0.10108   0.10162   0.10704
 Alpha virt. eigenvalues --    0.10938   0.11165   0.11585   0.11987   0.12614
 Alpha virt. eigenvalues --    0.13527   0.13603   0.13921   0.14018   0.14331

 Mulliken charges:
               1
     1  C   -1.045123
     2  N   -0.614544
     3  C   -0.082820
     4  O   -0.336204
     5  O   -0.012679
     6  C   -0.227455
     7  C   -0.151499
     8  C   -1.099343
     9  C   -0.047605
    10  C   -1.166479
    11  C    1.022940
    12  C   -0.461403
    13  C   -0.326481
    14  H    0.614215
    15  H    0.243704
    16  H    0.243704
    17  H    0.266541
    18  H    0.266540
    19  H    0.249348
    20  H    0.260705
    21  H    0.249348
    22  H    0.319515
    23  C    0.879667
    24  Cl   0.396627
    25  H    0.267606
    26  H    0.421610
    27  F   -0.131396
    28  F   -0.046461
    29  F   -0.046462
    30  O   -0.435566
    31  O   -0.470153
    32  C    0.044659
    33  C   -0.292127
    34  C   -0.969871
    35  H    0.241926
    36  H    0.241914
    37  H    0.255006
    38  H    0.223088
    39  H    0.255006
 Sum of Mulliken charges =  -1.00000

 Dipole moment (field-independent basis, Debye):
    X=             -0.0015    Y=              5.6705    Z=              0.0003  Tot=              5.6705
 Quadrupole moment (field-independent basis, Debye-Ang):
   XX=           -191.8945   YY=           -183.7818   ZZ=           -146.0699
   XY=             21.7966   XZ=              0.0012   YZ=             -0.0010

  Exact polarizability:     278.402      22.542     223.896       0.000       0.001     130.094
 Approx polarizability:     279.282      18.311     266.259      -0.002       0.001     173.305

                      1                      2                      3
                      A                      A                      A
 Frequencies --      9.4972                18.7493                21.7077
 Red. masses --      5.1535                 2.2082                 3.4818
 Frc consts  --      0.0003                 0.0005                 0.0010
 IR Inten    --      0.5745                 0.0110                 1.3070

                      4                      5                      6
                      A                      A                      A
 Frequencies --     30.0419                38.1569                39.0102
 Red. masses --      8.6608                 4.6871                 4.6939
 Frc consts  --      0.0046                 0.0040                 0.0042
 IR Inten    --      0.7359                 2.3031                 0.4574

                      7                      8                      9
                      A                      A                      A
 Frequencies --     48.9079                53.8784                58.6558
 Red. masses --      6.0735                 3.1533                 6.5335
 Frc consts  --      0.0086                 0.0054                 0.0132
 IR Inten    --      0.1255                 2.8267                 1.2488

                     10                     11                     12
                      A                      A                      A
 Frequencies --     74.4908                79.0123                94.9384
 Red. masses --      5.2912                 5.6264                 4.4483
 Frc consts  --      0.0173                 0.0207                 0.0236
 IR Inten    --      5.8147                 0.6369                 4.4348

                     13                     14                     15
                      A                      A                      A
 Frequencies --    127.3004               128.5258               134.2370
 Red. masses --      4.8559                 8.8235                 6.2189
 Frc consts  --      0.0464                 0.0859                 0.0660
 IR Inten    --      0.5437                28.4867                 4.1264

                     16                     17                     18
                      A                      A                      A
 Frequencies --    146.5066               177.0221               182.4972
 Red. masses --      4.5668                12.9256                 5.4201
 Frc consts  --      0.0578                 0.2386                 0.1064
 IR Inten    --      0.6096                 1.5297                 2.4990

                     19                     20                     21
                      A                      A                      A
 Frequencies --    213.2231               231.2893               241.4858
 Red. masses --      1.1250                 6.7982                 1.1184
 Frc consts  --      0.0301                 0.2143                 0.0384
 IR Inten    --      0.5898                 0.2243                 0.0000

                     22                     23                     24
                      A                      A                      A
 Frequencies --    257.5796               306.8294               312.4735
 Red. masses --      5.4757                 6.7874                 6.1553
 Frc consts  --      0.2140                 0.3765                 0.3541
 IR Inten    --      3.3132                 3.0962                20.9762

                     25                     26                     27
                      A                      A                      A
 Frequencies --    327.7847               358.1751               359.5127
 Red. masses --      7.3129                 6.6598                 5.2094
 Frc consts  --      0.4629                 0.5034                 0.3967
 IR Inten    --      0.0862                 0.0688                17.7595

                     28                     29                     30
                      A                      A                      A
 Frequencies --    387.1490               425.0749               459.8413
 Red. masses --      8.6331                 5.7785                 6.8802
 Frc consts  --      0.7624                 0.6152                 0.8572
 IR Inten    --      6.1447                28.9291                 1.8978

                     31                     32                     33
                      A                      A                      A
 Frequencies --    465.7897               510.1667               529.5824
 Red. masses --      4.0527                 5.6016                 7.2729
 Frc consts  --      0.5181                 0.8590                 1.2018
 IR Inten    --      1.9220                 4.9139                27.0380

                     34                     35                     36
                      A                      A                      A
 Frequencies --    549.2019               584.8493               599.2827
 Red. masses --      8.5081                 1.9453                 9.7123
 Frc consts  --      1.5120                 0.3920                 2.0551
 IR Inten    --      6.0717                 1.7125                 4.7275

                     37                     38                     39
                      A                      A                      A
 Frequencies --    656.2707               665.1661               673.5399
 Red. masses --      4.6470                 5.8118                 8.7767
 Frc consts  --      1.1792                 1.5150                 2.3459
 IR Inten    --     34.2836                 2.2040                31.5347

                     40                     41                     42
                      A                      A                      A
 Frequencies --    708.8219               736.4324               759.8170
 Red. masses --      7.7244                 5.0730                 1.0937
 Frc consts  --      2.2866                 1.6210                 0.3720
 IR Inten    --     12.4307                 0.8659                 2.8339

                     43                     44                     45
                      A                      A                      A
 Frequencies --    774.5873               784.0340               800.4648
 Red. masses --      9.6584                 8.6439                 9.4999
 Frc consts  --      3.4143                 3.1306                 3.5864
 IR Inten    --      9.3415                25.9087                15.5862

                     46                     47                     48
                      A                      A                      A
 Frequencies --    823.6583               881.5447               885.1819
 Red. masses --      1.4665                 4.1923                 1.3165
 Frc consts  --      0.5862                 1.9195                 0.6078
 IR Inten    --      7.0213                49.5310                20.7380

                     49                     50                     51
                      A                      A                      A
 Frequencies --    902.0652               925.1404               940.7926
 Red. masses --      1.1518                 1.7411                 1.4157
 Frc consts  --      0.5522                 0.8780                 0.7383
 IR Inten    --      2.6295                 8.8105                32.6132

                     52                     53                     54
                      A                      A                      A
 Frequencies --    954.9858              1015.8288              1024.7024
 Red. masses --      4.7837                 1.6802                 6.4384
 Frc consts  --      2.5704                 1.0216                 3.9831
 IR Inten    --     13.7691                 4.0503                15.9816

                     55                     56                     57
                      A                      A                      A
 Frequencies --   1043.9390              1047.5570              1074.6771
 Red. masses --      5.7874                 1.1108                 2.5136
 Frc consts  --      3.7161                 0.7182                 1.7104
 IR Inten    --     39.4894                39.3822                 3.3617

                     58                     59                     60
                      A                      A                      A
 Frequencies --   1079.4834              1104.6646              1109.1788
 Red. masses --      1.1998                 1.7747                 2.3675
 Frc consts  --      0.8237                 1.2759                 1.7161
 IR Inten    --     35.7727                 0.1447                 8.4870

                     61                     62                     63
                      A                      A                      A
 Frequencies --   1148.8019              1154.5776              1166.3114
 Red. masses --      2.2518                 6.9441                 2.4411
 Frc consts  --      1.7510                 5.4540                 1.9564
 IR Inten    --    101.9134               157.6675                 0.3768

                     64                     65                     66
                      A                      A                      A
 Frequencies --   1182.7226              1194.3189              1196.1636
 Red. masses --     12.8639                 3.6231                 1.6744
 Frc consts  --     10.6020                 3.0449                 1.4115
 IR Inten    --    274.2346                50.8781                 0.9459

                     67                     68                     69
                      A                      A                      A
 Frequencies --   1233.2141              1282.5676              1288.0615
 Red. masses --      1.8957                 3.0750                 1.1857
 Frc consts  --      1.6986                 2.9803                 1.1591
 IR Inten    --    314.0762                20.6153                 0.9993

                     70                     71                     72
                      A                      A                      A
 Frequencies --   1288.5706              1292.1750              1310.2349
 Red. masses --      1.1866                 3.9284                 2.1637
 Frc consts  --      1.1609                 3.8647                 2.1885
 IR Inten    --      0.1069               619.9307                70.3777

                     73                     74                     75
                      A                      A                      A
 Frequencies --   1327.3617              1332.6780              1335.3825
 Red. masses --      1.6311                 1.0714                 1.8396
 Frc consts  --      1.6932                 1.1211                 1.9328
 IR Inten    --     23.9299                 0.0019               237.8763

                     76                     77                     78
                      A                      A                      A
 Frequencies --   1357.1390              1396.4704              1411.5071
 Red. masses --      2.1564                 3.3560                 1.4595
 Frc consts  --      2.3401                 3.8560                 1.7133
 IR Inten    --    298.0442               293.4487                61.8030

                     79                     80                     81
                      A                      A                      A
 Frequencies --   1425.4764              1444.2967              1448.9119
 Red. masses --      1.2707                 3.2055                 1.8081
 Frc consts  --      1.5213                 3.9396                 2.2365
 IR Inten    --      5.6688               313.6051                68.9135

                     82                     83                     84
                      A                      A                      A
 Frequencies --   1478.7021              1485.2950              1506.1548
 Red. masses --      4.3598                 1.1326                 1.0373
 Frc consts  --      5.6167                 1.4722                 1.3864
 IR Inten    --    213.7494                 4.7118                 5.7002

                     85                     86                     87
                      A                      A                      A
 Frequencies --   1508.1291              1518.6610              1523.5968
 Red. masses --      1.0670                 1.0693                 1.0380
 Frc consts  --      1.4299                 1.4531                 1.4196
 IR Inten    --      3.5697                41.4748                 8.4737

                     88                     89                     90
                      A                      A                      A
 Frequencies --   1526.4250              1540.5578              1543.1520
 Red. masses --      1.0735                 1.1435                 2.5075
 Frc consts  --      1.4737                 1.5989                 3.5181
 IR Inten    --      2.0853                33.9785               118.7811

                     91                     92                     93
                      A                      A                      A
 Frequencies --   1636.6503              1660.5874              1692.9639
 Red. masses --      4.5268                 6.7881                 7.1585
 Frc consts  --      7.1441                11.0286                12.0883
 IR Inten    --    157.8803                51.8767               878.4116

                     94                     95                     96
                      A                      A                      A
 Frequencies --   1702.7120              1798.8750              2818.8270
 Red. masses --      1.7893                 8.6522                 1.1106
 Frc consts  --      3.0564                16.4961                 5.1994
 IR Inten    --    259.7775               293.4710              2140.0124

                     97                     98                     99
                      A                      A                      A
 Frequencies --   3052.8439              3060.6215              3065.5800
 Red. masses --      1.0447                 1.0381                 1.0561
 Frc consts  --      5.7368                 5.7295                 5.8475
 IR Inten    --     69.0134                19.6800                47.4915

                    100                    101                    102
                      A                      A                      A
 Frequencies --   3066.6599              3086.2029              3096.6575
 Red. masses --      1.0593                 1.0606                 1.1014
 Frc consts  --      5.8695                 5.9518                 6.2226
 IR Inten    --     21.0036                26.7484                15.5067

                    103                    104                    105
                      A                      A                      A
 Frequencies --   3099.2816              3115.2853              3120.6863
 Red. masses --      1.1058                 1.1040                 1.0984
 Frc consts  --      6.2583                 6.3125                 6.3024
 IR Inten    --     12.9513                 0.4013               359.4003

                    106                    107                    108
                      A                      A                      A
 Frequencies --   3125.4158              3136.7215              3139.5419
 Red. masses --      1.0942                 1.1010                 1.1053
 Frc consts  --      6.2975                 6.3824                 6.4192
 IR Inten    --     34.8225                41.4917                63.1020

                    109                    110                    111
                      A                      A                      A
 Frequencies --   3147.2679              3231.0201              3288.8422
 Red. masses --      1.1022                 1.0923                 1.0904
 Frc consts  --      6.4328                 6.7187                 6.9491
 IR Inten    --     38.8111                 2.7674                12.7070

 - Thermochemistry -
 -------------------
 Temperature   298.150 Kelvin.  Pressure   1.00000 Atm.
 Atom     1 has atomic number  6 and mass  12.00000

 Molecular mass:   354.07200 amu.
 Principal axes and moments of inertia in atomic units:
                           1         2         3
     Eigenvalues --  6314.90175********************
           X            0.99984   0.01768   0.00000
           Y           -0.01768   0.99984  -0.00000
           Z           -0.00000   0.00000   1.00000
 This molecule is an asymmetric top.
 Rotational symmetry number  1.
 Warning -- assumption of classical behavior for rotation
           may cause significant error
 Rotational temperatures (Kelvin)      0.01372     0.00550     0.00399
 Rotational constants (GHZ):           0.28579     0.11456     0.08318
 Zero-point vibrational energy     771267.3 (Joules/Mol)
                                  184.33731 (Kcal/Mol)
 Warning -- explicit consideration of  36 degrees of freedom as
           vibrations may cause significant error
 Vibrational temperatures:     13.66    26.98    31.23    43.22    54.90
          (Kelvin)             56.13    70.37    77.52    84.39   107.18
                              113.68   136.60   183.16   184.92   193.14
                              210.79   254.70   262.57   306.78   332.77
                              347.44   370.60   441.46   449.58   471.61
                              515.33   517.26   557.02   611.59   661.61
                              670.17   734.02   761.95   790.18   841.47
                              862.23   944.23   957.03   969.07  1019.84
                             1059.56  1093.21  1114.46  1128.05  1151.69
                             1185.06  1268.35  1273.58  1297.87  1331.07
                             1353.59  1374.01  1461.55  1474.32  1502.00
                             1507.20  1546.22  1553.14  1589.37  1595.86
                             1652.87  1661.18  1678.06  1701.67  1718.36
                             1721.01  1774.32  1845.33  1853.23  1853.97
                             1859.15  1885.14  1909.78  1917.43  1921.32
                             1952.62  2009.21  2030.84  2050.94  2078.02
                             2084.66  2127.52  2137.01  2167.02  2169.86
                             2185.01  2192.12  2196.19  2216.52  2220.25
                             2354.77  2389.21  2435.80  2449.82  2588.18
                             4055.66  4392.36  4403.55  4410.69  4412.24
                             4440.36  4455.40  4459.18  4482.20  4489.97
                             4496.78  4513.04  4517.10  4528.22  4648.72
                             4731.91

 Zero-point correction=                           0.293760 (Hartree/Particle)
 Thermal correction to Energy=                    0.318404
 Thermal correction to Enthalpy=                  0.319348
 Thermal correction to Gibbs Free Energy=         0.232096
 Sum of electronic and zero-point Energies=          -1658.234619
 Sum of electronic and thermal Energies=             -1658.209976
 Sum of electronic and thermal Enthalpies=           -1658.209031
 Sum of electronic and thermal Free Energies=        -1658.296284

                     E (Thermal)             CV                S
                      KCal/Mol        Cal/Mol-Kelvin    Cal/Mol-Kelvin
 Total                  199.801             84.648            183.638
 Electronic               0.000              0.000              0.000
 Translational            0.889              2.981             43.487
 Rotational               0.889              2.981             36.022
 Vibrational            198.024             78.687            104.129
 Vibration     1          0.593              1.987              8.114
 Vibration     2          0.593              1.986              6.762
 Vibration     3          0.593              1.985              6.472
 Vibration     4          0.594              1.984              5.827
 Vibration     5          0.594              1.982              5.353
 Vibration     6          0.594              1.981              5.309
 Vibration     7          0.595              1.978              4.861
 Vibration     8          0.596              1.976              4.670
 Vibration     9          0.596              1.974              4.502
 Vibration    10          0.599              1.966              4.031
 Vibration    11          0.600              1.963              3.915
 Vibration    12          0.603              1.953              3.556
 Vibration    13          0.611              1.926              2.986
 Vibration    14          0.611              1.925              2.968
 Vibration    15          0.613              1.919              2.884
 Vibration    16          0.617              1.906              2.717
 Vibration    17          0.628              1.871              2.360
 Vibration    18          0.630              1.864              2.303
 Vibration    19          0.644              1.821              2.016
 Vibration    20          0.653              1.793              1.869
 Vibration    21          0.658              1.777              1.792
 Vibration    22          0.667              1.750              1.678
 Vibration    23          0.697              1.661              1.379
 Vibration    24          0.701              1.650              1.349
 Vibration    25          0.711              1.620              1.271
 Vibration    26          0.733              1.558              1.130
 Vibration    27          0.734              1.556              1.124
 Vibration    28          0.756              1.498              1.011
 Vibration    29          0.787              1.416              0.875
 Vibration    30          0.818              1.339              0.767
 Vibration    31          0.823              1.326              0.749
 Vibration    32          0.865              1.227              0.633
 Vibration    33          0.885              1.185              0.588
 Vibration    34          0.904              1.141              0.546
 Vibration    35          0.942              1.064              0.476
 Vibration    36          0.957              1.033              0.451

 Optimization completed.
    -- Stationary point found.
 Normal termination of Gaussian 16 at Mon Mar 22 20:54:57 2021.
