 Gaussian 16, Revision C.01,

 ----------------------------------------------------------------------
 # M062X/6-311+G* SCF=Tight INT(grid=ultrafine) OPT=CalcFC IOP(2/17=4)
 EmpiricalDispersion=GD3 SCRF=(SMD,Solvent=h2o) MaxDisk=10000MB
 ----------------------------------------------------------------------

 -----------------------------------------
 29CA_carboxy.M062X_6-311pGd_opt_water_GD3
 -----------------------------------------
 Symbolic Z-matrix:
 Charge = -1 Multiplicity = 1

 SCF Done:  E(RM062X) =  -1658.54751349     A.U. after   15 cycles
 SCF Done:  E(RM062X) =  -1658.57199872     A.U. after   14 cycles
 SCF Done:  E(RM062X) =  -1658.59729475     A.U. after   15 cycles
 SCF Done:  E(RM062X) =  -1658.59751378     A.U. after   14 cycles
 SCF Done:  E(RM062X) =  -1658.59910029     A.U. after   15 cycles
 SCF Done:  E(RM062X) =  -1658.60154863     A.U. after   15 cycles
 SCF Done:  E(RM062X) =  -1658.57416892     A.U. after   16 cycles
 SCF Done:  E(RM062X) =  -1658.60121827     A.U. after   16 cycles
 SCF Done:  E(RM062X) =  -1658.60212806     A.U. after   14 cycles
 SCF Done:  E(RM062X) =  -1658.57019433     A.U. after   16 cycles
 SCF Done:  E(RM062X) =  -1658.60645773     A.U. after   11 cycles
 SCF Done:  E(RM062X) =  -1658.60645833     A.U. after   10 cycles
 SCF Done:  E(RM062X) =  -1658.60645813     A.U. after   10 cycles
 SCF Done:  E(RM062X) =  -1658.60645820     A.U. after    9 cycles
 SCF Done:  E(RM062X) =  -1658.60645802     A.U. after   10 cycles
 SCF Done:  E(RM062X) =  -1658.60645802     A.U. after    9 cycles
 SCF Done:  E(RM062X) =  -1658.60645808     A.U. after    9 cycles
 SCF Done:  E(RM062X) =  -1658.60645807     A.U. after    8 cycles
 SCF Done:  E(RM062X) =  -1658.60645809     A.U. after    8 cycles
 Optimization completed.
    -- Stationary point found.
 Normal termination of Gaussian 16 at Mon Mar 22 14:57:40 2021.
 Gaussian 16:  ES64L-G16RevC.01  3-Jul-2019

 ----------------------------------------------------------------------
 # M062X/6-311+G* SCF=Tight INT(grid=ultrafine) EmpiricalDispersion=GD3
  SCRF=(SMD,Solvent=h2o) Freq=Noraman MaxDisk=10000MB geom=check guess=
 read IOP(2/17=4)
 ----------------------------------------------------------------------

 -----------------------------------------
 29CA_carboxy.M062X_6-311pGd_opt_water_GD3
 -----------------------------------------
 Structure from the checkpoint file:  "29CA_carboxy.M062X_6-311pGd_opt_water_GD3.chk"
 Charge = -1 Multiplicity = 1

                         Standard orientation:
 ---------------------------------------------------------------------
 Center     Atomic      Atomic             Coordinates (Angstroms)
 Number     Number       Type             X           Y           Z
 ---------------------------------------------------------------------
      1          6           0       -0.586635   -0.178657    0.110753
      2          7           0        0.758587    0.199949    0.060931
      3          6           0        1.247840    1.465954    0.093481
      4          8           0        0.597639    2.494985    0.145623
      5          8           0        2.588576    1.434685    0.063548
      6          6           0        3.262719    2.707158    0.118355
      7          6           0        4.749692    2.433291    0.094077
      8          6           0        5.535210    3.738241    0.160418
      9          6           0       -1.652235    0.699876   -0.093822
     10          6           0       -2.960734    0.228482   -0.040671
     11          6           0       -3.215531   -1.117931    0.208670
     12          6           0       -2.158091   -1.996297    0.401782
     13          6           0       -0.855987   -1.529329    0.354760
     14          1           0        1.456938   -0.556806    0.087617
     15          1           0        2.966398    3.222419    1.034692
     16          1           0        2.951828    3.307060   -0.739784
     17          1           0        4.998226    1.885951   -0.819366
     18          1           0        5.008250    1.790837    0.940454
     19          1           0        5.296816    4.385203   -0.687648
     20          1           0        6.609552    3.547800    0.143738
     21          1           0        5.307019    4.288787    1.076612
     22          1           0       -1.468887    1.742522   -0.299798
     23          6           0       -4.088749    1.197692   -0.264994
     24         17           0       -4.842625   -1.743005    0.285762
     25          1           0       -2.353511   -3.044228    0.592997
     26          1           0       -0.032580   -2.219348    0.506645
     27          9           0       -3.651717    2.440902   -0.499639
     28          9           0       -4.852216    0.855868   -1.317447
     29          9           0       -4.910924    1.275181    0.796084
     30          8           0        2.166862   -3.765232   -0.161568
     31          8           0        2.867141   -1.665094    0.116272
     32          6           0        3.068754   -2.888318   -0.118425
     33          6           0        4.500268   -3.355258   -0.375941
     34          6           0        5.569457   -2.282205   -0.240358
     35          1           0        4.513157   -3.788781   -1.381090
     36          1           0        4.694423   -4.187306    0.307217
     37          1           0        5.403052   -1.464059   -0.944119
     38          1           0        6.559264   -2.699121   -0.439065
     39          1           0        5.580673   -1.857989    0.765915
 ---------------------------------------------------------------------

 SCF Done:  E(RM062X) =  -1658.60645809     A.U. after    1 cycles

 The electronic state is 1-A.
 Alpha  occ. eigenvalues -- -102.68779 -25.28746 -25.28380 -25.28375 -19.67012
 Alpha  occ. eigenvalues --  -19.61509 -19.57665 -19.57104 -14.78409 -10.81361
 Alpha  occ. eigenvalues --  -10.70922 -10.63561 -10.62253 -10.61033 -10.58971
 Alpha  occ. eigenvalues --  -10.58723 -10.56590 -10.56561 -10.56097 -10.52883
 Alpha  occ. eigenvalues --  -10.52329 -10.51777 -10.51293  -9.83058  -7.55572
 Alpha  occ. eigenvalues --   -7.54893  -7.54882  -1.47986  -1.38584  -1.38242
 Alpha  occ. eigenvalues --   -1.24973  -1.16238  -1.15065  -1.06924  -1.06254
 Alpha  occ. eigenvalues --   -1.01526  -0.95081  -0.90522  -0.89041  -0.85558
 Alpha  occ. eigenvalues --   -0.84933  -0.82003  -0.78734  -0.74676  -0.72721
 Alpha  occ. eigenvalues --   -0.71946  -0.70391  -0.70312  -0.68673  -0.67082
 Alpha  occ. eigenvalues --   -0.66245  -0.63440  -0.59973  -0.58805  -0.58674
 Alpha  occ. eigenvalues --   -0.58550  -0.58424  -0.57729  -0.56062  -0.54313
 Alpha  occ. eigenvalues --   -0.54266  -0.53553  -0.53018  -0.52961  -0.52701
 Alpha  occ. eigenvalues --   -0.52208  -0.51901  -0.50955  -0.49993  -0.49160
 Alpha  occ. eigenvalues --   -0.48888  -0.46659  -0.46148  -0.46013  -0.44919
 Alpha  occ. eigenvalues --   -0.44448  -0.43905  -0.42996  -0.42540  -0.41430
 Alpha  occ. eigenvalues --   -0.39888  -0.39837  -0.39436  -0.38964  -0.38102
 Alpha  occ. eigenvalues --   -0.37531  -0.37292  -0.33654  -0.33567  -0.32765
 Alpha  occ. eigenvalues --   -0.32052  -0.28300
 Alpha virt. eigenvalues --   -0.01181   0.00027   0.01315   0.02076   0.02727
 Alpha virt. eigenvalues --    0.02857   0.03433   0.03689   0.04080   0.04458
 Alpha virt. eigenvalues --    0.05020   0.05356   0.05500   0.05875   0.06363

 Mulliken charges:
               1
     1  C   -0.899374
     2  N   -0.468908
     3  C    0.057979
     4  O   -0.441846
     5  O   -0.110560
     6  C   -0.346167
     7  C   -0.124266
     8  C   -1.150438
     9  C   -0.200923
    10  C   -1.033665
    11  C    0.811362
    12  C   -0.640695
    13  C    0.115630
    14  H    0.555273
    15  H    0.285416
    16  H    0.283205
    17  H    0.276604
    18  H    0.276374
    19  H    0.271956
    20  H    0.284699
    21  H    0.272195
    22  H    0.327279
    23  C    0.749380
    24  Cl   0.428332
    25  H    0.322263
    26  H    0.314708
    27  F   -0.139496
    28  F   -0.052274
    29  F   -0.052831
    30  O   -0.621728
    31  O   -0.641909
    32  C    0.296553
    33  C   -0.446178
    34  C   -0.943779
    35  H    0.291020
    36  H    0.284289
    37  H    0.263787
    38  H    0.275549
    39  H    0.271186
 Sum of Mulliken charges =  -1.00000

 Dipole moment (field-independent basis, Debye):
    X=             -0.9976    Y=              7.4498    Z=              0.1412  Tot=              7.5177
 Quadrupole moment (field-independent basis, Debye-Ang):
   XX=           -174.6408   YY=           -181.6819   ZZ=           -144.7309
   XY=             30.4988   XZ=             -1.8110   YZ=             -2.5342

  Exact polarizability:     335.539      30.044     306.057      -1.270      -6.633     191.800
 Approx polarizability:     272.711      16.514     259.915      -0.635      -6.255     173.031

                      1                      2                      3
                      A                      A                      A
 Frequencies --      9.5257                24.9897                35.3570
 Red. masses --      8.8550                 6.1764                 4.6832
 Frc consts  --      0.0005                 0.0023                 0.0034
 IR Inten    --      2.1345                 0.2860                 2.5504

                      4                      5                      6
                      A                      A                      A
 Frequencies --     36.6058                40.4557                47.0825
 Red. masses --      4.2227                 4.1832                 3.1064
 Frc consts  --      0.0033                 0.0040                 0.0041
 IR Inten    --      3.5777                 7.9278                 8.8113

                      7                      8                      9
                      A                      A                      A
 Frequencies --     54.4809                57.1072                65.4791
 Red. masses --      3.1212                 7.6478                 5.2098
 Frc consts  --      0.0055                 0.0147                 0.0132
 IR Inten    --      9.3032                 1.3342                 9.9198

                     10                     11                     12
                      A                      A                      A
 Frequencies --     69.8862                76.0206                97.1267
 Red. masses --      5.0733                 7.1380                 2.6271
 Frc consts  --      0.0146                 0.0243                 0.0146
 IR Inten    --      7.7997                 5.0173                 7.3237

                     13                     14                     15
                      A                      A                      A
 Frequencies --    104.3646               115.6342               131.7243
 Red. masses --      6.9600                 5.1907                 6.3403
 Frc consts  --      0.0447                 0.0409                 0.0648
 IR Inten    --     15.9436                 0.7749                 1.3694

                     16                     17                     18
                      A                      A                      A
 Frequencies --    147.7902               172.8118               180.5955
 Red. masses --      5.7284                 4.3067                10.9289
 Frc consts  --      0.0737                 0.0758                 0.2100
 IR Inten    --      1.5675                 6.3963                 2.4718

                     19                     20                     21
                      A                      A                      A
 Frequencies --    229.8794               246.3283               250.3940
 Red. masses --      6.6679                 1.1217                 1.0907
 Frc consts  --      0.2076                 0.0401                 0.0403
 IR Inten    --      0.0612                 0.0983                 1.6892

                     22                     23                     24
                      A                      A                      A
 Frequencies --    255.4665               308.2725               313.5692
 Red. masses --      5.8987                13.8493                 3.9659
 Frc consts  --      0.2268                 0.7754                 0.2298
 IR Inten    --      4.0673                 3.4628                12.3714

                     25                     26                     27
                      A                      A                      A
 Frequencies --    322.6351               353.0410               353.8612
 Red. masses --      6.7920                 5.5610                 5.5081
 Frc consts  --      0.4166                 0.4084                 0.4064
 IR Inten    --      1.5708                12.4192                16.6819

                     28                     29                     30
                      A                      A                      A
 Frequencies --    383.7216               421.2509               460.2467
 Red. masses --      8.9703                 5.8992                 5.9118
 Frc consts  --      0.7782                 0.6168                 0.7378
 IR Inten    --      5.5579                29.4925                 3.1723

                     31                     32                     33
                      A                      A                      A
 Frequencies --    463.4365               513.3661               526.9295
 Red. masses --      4.1223                 5.4557                 7.1672
 Frc consts  --      0.5216                 0.8471                 1.1725
 IR Inten    --      5.6030                12.4948                35.9326

                     34                     35                     36
                      A                      A                      A
 Frequencies --    542.3451               585.4566               598.9544
 Red. masses --      7.7132                 1.9146                 9.6838
 Frc consts  --      1.3367                 0.3867                 2.0468
 IR Inten    --     17.9555                 5.6366                 4.3753

                     37                     38                     39
                      A                      A                      A
 Frequencies --    654.5805               656.1475               672.0691
 Red. masses --      4.8013                 4.6893                 8.4242
 Frc consts  --      1.2121                 1.1895                 2.2419
 IR Inten    --      4.2949                44.6349                46.0635

                     40                     41                     42
                      A                      A                      A
 Frequencies --    707.1520               739.2738               767.7382
 Red. masses --      7.6789                 4.3061                 1.1379
 Frc consts  --      2.2624                 1.3866                 0.3952
 IR Inten    --     17.3738                 5.2353                25.0312

                     43                     44                     45
                      A                      A                      A
 Frequencies --    770.3436               783.1592               790.7129
 Red. masses --      7.7914                 5.5768                 7.9609
 Frc consts  --      2.7242                 2.0153                 2.9326
 IR Inten    --     17.0395                35.1014                59.8937

                     46                     47                     48
                      A                      A                      A
 Frequencies --    816.1161               824.7518               858.7350
 Red. masses --      1.1568                 1.5263                 1.4059
 Frc consts  --      0.4539                 0.6117                 0.6109
 IR Inten    --    133.7186                41.4822                89.7185

                     49                     50                     51
                      A                      A                      A
 Frequencies --    885.6214               909.6094               916.7418
 Red. masses --      4.0136                 1.1458                 1.5659
 Frc consts  --      1.8547                 0.5586                 0.7754
 IR Inten    --     39.8534                 3.3060                58.4267

                     52                     53                     54
                      A                      A                      A
 Frequencies --    927.8521               952.0841               997.4189
 Red. masses --      1.8280                 4.1399                 1.3389
 Frc consts  --      0.9272                 2.2110                 0.7848
 IR Inten    --      8.5980                43.0618                 0.0432

                     55                     56                     57
                      A                      A                      A
 Frequencies --   1012.8865              1025.6141              1048.0780
 Red. masses --      7.2870                 1.6598                 5.8619
 Frc consts  --      4.4047                 1.0286                 3.7938
 IR Inten    --     19.1065                20.2186                60.8807

                     58                     59                     60
                      A                      A                      A
 Frequencies --   1075.4685              1110.0826              1111.3032
 Red. masses --      2.4124                 1.8825                 2.2012
 Frc consts  --      1.6439                 1.3668                 1.6017
 IR Inten    --      0.6453                 7.6015                16.8526

                     61                     62                     63
                      A                      A                      A
 Frequencies --   1116.1232              1147.2384              1147.6595
 Red. masses --      6.4588                 2.7568                 9.3618
 Frc consts  --      4.7405                 2.1378                 7.2650
 IR Inten    --    323.6078               141.0798               426.8831

                     64                     65                     66
                      A                      A                      A
 Frequencies --   1163.7632              1171.8398              1191.9863
 Red. masses --      2.3667                 3.9253                 1.6495
 Frc consts  --      1.8885                 3.1758                 1.3809
 IR Inten    --     24.2465               152.5844                 1.4678

                     67                     68                     69
                      A                      A                      A
 Frequencies --   1206.8797              1264.4624              1280.2842
 Red. masses --      1.7202                 3.1659                 3.3384
 Frc consts  --      1.4763                 2.9824                 3.2240
 IR Inten    --    431.4442              1009.6129                36.0019

                     70                     71                     72
                      A                      A                      A
 Frequencies --   1288.5275              1296.2335              1302.9879
 Red. masses --      1.1843                 1.1673                 2.1143
 Frc consts  --      1.1585                 1.1556                 2.1149
 IR Inten    --      3.2029                 0.8736               267.3549

                     73                     74                     75
                      A                      A                      A
 Frequencies --   1318.4162              1335.6103              1336.3670
 Red. masses --      2.4919                 1.7305                 1.0695
 Frc consts  --      2.5520                 1.8187                 1.1254
 IR Inten    --    301.4528                91.1377                 2.7585

                     76                     77                     78
                      A                      A                      A
 Frequencies --   1348.4848              1377.7457              1415.9977
 Red. masses --      1.5092                 3.9534                 1.3549
 Frc consts  --      1.6169                 4.4214                 1.6005
 IR Inten    --     76.0222               226.5856                57.2422

                     79                     80                     81
                      A                      A                      A
 Frequencies --   1418.8494              1444.1792              1444.8638
 Red. masses --      1.2764                 2.0159                 1.5291
 Frc consts  --      1.5140                 2.4772                 1.8807
 IR Inten    --      9.4570               329.9451                 3.1893

                     82                     83                     84
                      A                      A                      A
 Frequencies --   1463.5672              1477.1105              1485.7823
 Red. masses --      1.6573                 4.7300                 1.0634
 Frc consts  --      2.0916                 6.0805                 1.3831
 IR Inten    --    110.6380               442.6509                 0.1863

                     85                     86                     87
                      A                      A                      A
 Frequencies --   1499.4475              1502.6307              1504.8232
 Red. masses --      1.0381                 1.0388                 1.0877
 Frc consts  --      1.3751                 1.3820                 1.4512
 IR Inten    --     13.3006                13.5625                78.9329

                     88                     89                     90
                      A                      A                      A
 Frequencies --   1509.9627              1524.0711              1535.1707
 Red. masses --      1.0909                 1.0964                 2.7764
 Frc consts  --      1.4654                 1.5005                 3.8552
 IR Inten    --      5.2692                26.2663               114.1562

                     91                     92                     93
                      A                      A                      A
 Frequencies --   1542.5222              1615.6846              1666.3444
 Red. masses --      7.8200                 2.3348                 5.4788
 Frc consts  --     10.9628                 3.5909                 8.9633
 IR Inten    --   1494.9468               735.2365               343.4594

                     94                     95                     96
                      A                      A                      A
 Frequencies --   1683.8658              1729.4341              3069.4028
 Red. masses --      3.5798                 8.5058                 1.0371
 Frc consts  --      5.9803                14.9891                 5.7567
 IR Inten    --     83.8820               779.1778                30.9424

                     97                     98                     99
                      A                      A                      A
 Frequencies --   3072.8493              3076.8898              3077.6393
 Red. masses --      1.0371                 1.0623                 1.0602
 Frc consts  --      5.7697                 5.9254                 5.9168
 IR Inten    --     47.0197                18.8869                25.7838

                    100                    101                    102
                      A                      A                      A
 Frequencies --   3094.3142              3110.4566              3113.3386
 Red. masses --      1.0568                 1.1009                 1.1042
 Frc consts  --      5.9620                 6.2755                 6.3058
 IR Inten    --     57.9166                 8.8373                 1.1952

                    103                    104                    105
                      A                      A                      A
 Frequencies --   3136.8327              3140.7997              3146.8068
 Red. masses --      1.1048                 1.1026                 1.1035
 Frc consts  --      6.4051                 6.4085                 6.4384
 IR Inten    --     28.1134                52.7433                55.6932

                    106                    107                    108
                      A                      A                      A
 Frequencies --   3147.8317              3151.4295              3224.4343
 Red. masses --      1.1024                 1.1099                 1.0912
 Frc consts  --      6.4360                 6.4944                 6.6847
 IR Inten    --     41.7982                93.6419                 0.8287

                    109                    110                    111
                      A                      A                      A
 Frequencies --   3243.5144              3250.9169              3291.4188
 Red. masses --      1.0954                 1.0875                 1.0917
 Frc consts  --      6.7897                 6.7717                 6.9684
 IR Inten    --     12.6251              1502.1381                20.4483

 - Thermochemistry -
 -------------------
 Temperature   298.150 Kelvin.  Pressure   1.00000 Atm.
 Atom     1 has atomic number  6 and mass  12.00000

 Molecular mass:   354.07200 amu.
 Principal axes and moments of inertia in atomic units:
                           1         2         3
     Eigenvalues --  5877.13886********************
           X            0.99987   0.01600  -0.00160
           Y           -0.01600   0.99986   0.00428
           Z            0.00167  -0.00425   0.99999
 This molecule is an asymmetric top.
 Rotational symmetry number  1.
 Warning -- assumption of classical behavior for rotation
           may cause significant error
 Rotational temperatures (Kelvin)      0.01474     0.00512     0.00389
 Rotational constants (GHZ):           0.30708     0.10679     0.08104
 Zero-point vibrational energy     769901.8 (Joules/Mol)
                                  184.01094 (Kcal/Mol)
 Warning -- explicit consideration of  36 degrees of freedom as
           vibrations may cause significant error
 Vibrational temperatures:     13.71    35.95    50.87    52.67    58.21
          (Kelvin)             67.74    78.39    82.16    94.21   100.55
                              109.38   139.74   150.16   166.37   189.52
                              212.64   248.64   259.84   330.75   354.41
                              360.26   367.56   443.54   451.16   464.20
                              507.95   509.13   552.09   606.09   662.19
                              666.78   738.62   758.13   780.31   842.34
                              861.76   941.80   944.05   966.96  1017.43
                             1063.65  1104.60  1108.35  1126.79  1137.66
                             1174.21  1186.63  1235.53  1274.21  1308.73
                             1318.99  1334.97  1369.84  1435.06  1457.32
                             1475.63  1507.95  1547.36  1597.16  1598.92
                             1605.85  1650.62  1651.23  1674.40  1686.02
                             1715.00  1736.43  1819.28  1842.04  1853.90
                             1864.99  1874.71  1896.91  1921.65  1922.73
                             1940.17  1982.27  2037.30  2041.41  2077.85
                             2078.84  2105.75  2125.23  2137.71  2157.37
                             2161.95  2165.11  2172.50  2192.80  2208.77
                             2219.35  2324.61  2397.50  2422.71  2488.27
                             4416.19  4421.14  4426.96  4428.04  4452.03
                             4475.25  4479.40  4513.20  4518.91  4527.55
                             4529.03  4534.20  4639.24  4666.69  4677.34
                             4735.62

 Zero-point correction=                           0.293240 (Hartree/Particle)
 Thermal correction to Energy=                    0.317917
 Thermal correction to Enthalpy=                  0.318861
 Thermal correction to Gibbs Free Energy=         0.232598
 Sum of electronic and zero-point Energies=          -1658.313218
 Sum of electronic and thermal Energies=             -1658.288541
 Sum of electronic and thermal Enthalpies=           -1658.287597
 Sum of electronic and thermal Free Energies=        -1658.373860

                     E (Thermal)             CV                S
                      KCal/Mol        Cal/Mol-Kelvin    Cal/Mol-Kelvin
 Total                  199.496             85.325            181.556
 Electronic               0.000              0.000              0.000
 Translational            0.889              2.981             43.487
 Rotational               0.889              2.981             36.046
 Vibrational            197.719             79.363            102.023
 Vibration     1          0.593              1.987              8.108
 Vibration     2          0.593              1.985              6.192
 Vibration     3          0.594              1.982              5.504
 Vibration     4          0.594              1.982              5.435
 Vibration     5          0.594              1.981              5.237
 Vibration     6          0.595              1.979              4.936
 Vibration     7          0.596              1.976              4.648
 Vibration     8          0.596              1.975              4.555
 Vibration     9          0.597              1.971              4.285
 Vibration    10          0.598              1.968              4.157
 Vibration    11          0.599              1.965              3.991
 Vibration    12          0.603              1.951              3.511
 Vibration    13          0.605              1.946              3.371
 Vibration    14          0.608              1.936              3.172
 Vibration    15          0.612              1.922              2.921
 Vibration    16          0.617              1.905              2.700
 Vibration    17          0.626              1.876              2.405
 Vibration    18          0.630              1.866              2.322
 Vibration    19          0.652              1.795              1.880
 Vibration    20          0.661              1.769              1.757
 Vibration    21          0.663              1.762              1.728
 Vibration    22          0.666              1.754              1.693
 Vibration    23          0.698              1.658              1.372
 Vibration    24          0.701              1.648              1.343
 Vibration    25          0.708              1.630              1.297
 Vibration    26          0.729              1.569              1.153
 Vibration    27          0.730              1.567              1.149
 Vibration    28          0.753              1.505              1.024
 Vibration    29          0.784              1.424              0.888
 Vibration    30          0.818              1.338              0.765
 Vibration    31          0.821              1.331              0.756
 Vibration    32          0.868              1.220              0.626
 Vibration    33          0.882              1.190              0.594
 Vibration    34          0.897              1.156              0.560
 Vibration    35          0.942              1.063              0.475
 Vibration    36          0.957              1.034              0.451

 Optimization completed.
    -- Stationary point found.
 Normal termination of Gaussian 16 at Mon Mar 22 22:50:17 2021.
