 Gaussian 16, Revision C.01,

 ----------------------------------------------------------------------
 # M062X/6-311+G* SCF=Tight INT(grid=ultrafine) OPT=CalcFC IOP(2/17=4)
 EmpiricalDispersion=GD3 MaxDisk=10000MB
 ----------------------------------------------------------------------

 --------------------------------------
 29CA_carboxy_c2.M062X_6-311pGd_opt_GD3
 --------------------------------------
 Symbolic Z-matrix:
 Charge = -1 Multiplicity = 1

 SCF Done:  E(RM062X) =  -1658.43843520     A.U. after   17 cycles
 SCF Done:  E(RM062X) =  -1658.47121086     A.U. after   16 cycles
 SCF Done:  E(RM062X) =  -1658.42234909     A.U. after   16 cycles
 SCF Done:  E(RM062X) =  -1658.47779036     A.U. after   14 cycles
 SCF Done:  E(RM062X) =  -1658.48641853     A.U. after   14 cycles
 SCF Done:  E(RM062X) =  -1658.49366215     A.U. after   15 cycles
 SCF Done:  E(RM062X) =  -1658.48650662     A.U. after   15 cycles
 SCF Done:  E(RM062X) =  -1658.49771208     A.U. after   14 cycles
 SCF Done:  E(RM062X) =  -1658.50058103     A.U. after   12 cycles
 SCF Done:  E(RM062X) =  -1658.50561171     A.U. after   14 cycles
 SCF Done:  E(RM062X) =  -1658.52671075     A.U. after   13 cycles
 SCF Done:  E(RM062X) =  -1658.52672534     A.U. after   12 cycles
 SCF Done:  E(RM062X) =  -1658.52673389     A.U. after   13 cycles
 SCF Done:  E(RM062X) =  -1658.52673926     A.U. after   12 cycles
 SCF Done:  E(RM062X) =  -1658.52674121     A.U. after   12 cycles
 SCF Done:  E(RM062X) =  -1658.52674151     A.U. after   11 cycles
 SCF Done:  E(RM062X) =  -1658.52674195     A.U. after   11 cycles
 SCF Done:  E(RM062X) =  -1658.52674205     A.U. after   11 cycles
 SCF Done:  E(RM062X) =  -1658.52674206     A.U. after    9 cycles
 Optimization completed.
    -- Stationary point found.
 Normal termination of Gaussian 16 at Mon Mar 22 14:21:37 2021.
 Gaussian 16:  ES64L-G16RevC.01  3-Jul-2019

 ----------------------------------------------------------------------
 # M062X/6-311+G* SCF=Tight INT(grid=ultrafine) EmpiricalDispersion=GD3
  Freq=Noraman MaxDisk=10000MB geom=check guess=read IOP(2/17=4)
 ----------------------------------------------------------------------

 --------------------------------------
 29CA_carboxy_c2.M062X_6-311pGd_opt_GD3
 --------------------------------------
 Structure from the checkpoint file:  "29CA_carboxy_c2.M062X_6-311pGd_opt_GD3.chk"
 Charge = -1 Multiplicity = 1

                         Standard orientation:
 ---------------------------------------------------------------------
 Center     Atomic      Atomic             Coordinates (Angstroms)
 Number     Number       Type             X           Y           Z
 ---------------------------------------------------------------------
      1          6           0       -0.705701   -1.003520    0.324081
      2          7           0        0.628992   -0.900901    0.672587
      3          6           0        1.598618   -1.795289    0.325763
      4          8           0        1.465659   -2.820568   -0.307221
      5          8           0        2.777272   -1.374682    0.823820
      6          6           0        3.919565   -1.690269    0.030103
      7          6           0        5.065657   -0.846852    0.548949
      8          6           0        6.297915   -0.985439   -0.339253
      9          6           0       -1.470020    0.173302    0.400378
     10          6           0       -2.826887    0.162667    0.117218
     11          6           0       -3.448037   -1.032251   -0.255683
     12          6           0       -2.699861   -2.193712   -0.344222
     13          6           0       -1.339629   -2.190686   -0.061198
     14          1           0        0.991703    0.081706    0.825880
     15          1           0        3.697877   -1.429049   -1.007280
     16          1           0        4.134045   -2.762072    0.095598
     17          1           0        5.295325   -1.133786    1.580139
     18          1           0        4.724957    0.190970    0.565019
     19          1           0        6.635191   -2.024873   -0.400959
     20          1           0        7.130558   -0.388094    0.039042
     21          1           0        6.077690   -0.644585   -1.354194
     22          1           0       -0.967715    1.095978    0.672014
     23          6           0       -3.608529    1.442968    0.216117
     24         17           0       -5.158210   -1.108130   -0.620174
     25          1           0       -3.188976   -3.114008   -0.640978
     26          1           0       -0.764387   -3.100566   -0.148616
     27          9           0       -4.182428    1.783585   -0.951632
     28          9           0       -4.602933    1.362681    1.121050
     29          9           0       -2.844269    2.477596    0.582946
     30          8           0        1.519042    1.618517    0.783434
     31          8           0        2.657593    0.871102   -1.000121
     32          6           0        2.433658    1.686888   -0.092282
     33          6           0        3.353699    2.917115    0.031677
     34          6           0        4.453224    2.978331   -1.019933
     35          1           0        3.773093    2.904700    1.043349
     36          1           0        2.716098    3.805863   -0.010628
     37          1           0        5.099310    2.099470   -0.959398
     38          1           0        5.074347    3.871960   -0.901030
     39          1           0        4.025634    2.981693   -2.023968
 ---------------------------------------------------------------------

 SCF Done:  E(RM062X) =  -1658.52674206     A.U. after    2 cycles

 The electronic state is 1-A.
 Alpha  occ. eigenvalues -- -102.59275 -25.18683 -25.18392 -25.18366 -19.53829
 Alpha  occ. eigenvalues --  -19.48888 -19.42750 -19.42549 -14.65097 -10.71309
 Alpha  occ. eigenvalues --  -10.57917 -10.52079 -10.49945 -10.49013 -10.48755
 Alpha  occ. eigenvalues --  -10.47721 -10.46891 -10.46061 -10.45509 -10.43751
 Alpha  occ. eigenvalues --  -10.43194 -10.40919 -10.40623  -9.73551  -7.46062
 Alpha  occ. eigenvalues --   -7.45389  -7.45389  -1.37938  -1.28537  -1.28199
 Alpha  occ. eigenvalues --   -1.12185  -1.02550  -1.01745  -0.94567  -0.92054
 Alpha  occ. eigenvalues --   -0.91131  -0.84668  -0.80109  -0.79019  -0.74500
 Alpha  occ. eigenvalues --   -0.73964  -0.71463  -0.68528  -0.64196  -0.62258
 Alpha  occ. eigenvalues --   -0.60341  -0.60273  -0.59833  -0.59218  -0.56969
 Alpha  occ. eigenvalues --   -0.53007  -0.51857  -0.48778  -0.48506  -0.48366
 Alpha  occ. eigenvalues --   -0.47288  -0.46545  -0.45253  -0.44900  -0.44248
 Alpha  occ. eigenvalues --   -0.44118  -0.42868  -0.42172  -0.42001  -0.40981
 Alpha  occ. eigenvalues --   -0.40345  -0.40008  -0.39452  -0.39043  -0.38770
 Alpha  occ. eigenvalues --   -0.36711  -0.36390  -0.35419  -0.34189  -0.33478
 Alpha  occ. eigenvalues --   -0.33162  -0.32790  -0.32662  -0.32469  -0.30211
 Alpha  occ. eigenvalues --   -0.29947  -0.29760  -0.29411  -0.27693  -0.26723
 Alpha  occ. eigenvalues --   -0.25258  -0.24467  -0.23399  -0.18412  -0.18035
 Alpha  occ. eigenvalues --   -0.17521  -0.16500
 Alpha virt. eigenvalues --    0.09265   0.09387   0.09543   0.10243   0.10850
 Alpha virt. eigenvalues --    0.11069   0.11477   0.11946   0.12508   0.13228
 Alpha virt. eigenvalues --    0.13627   0.14024   0.14394   0.14545   0.14955

 Mulliken charges:
               1
     1  C   -0.177439
     2  N   -0.422257
     3  C    0.044699
     4  O   -0.331479
     5  O    0.001899
     6  C   -0.552696
     7  C   -0.130683
     8  C   -1.031335
     9  C   -0.501152
    10  C   -1.096313
    11  C    0.683876
    12  C   -0.583105
    13  C    0.032514
    14  H    0.491994
    15  H    0.296038
    16  H    0.240920
    17  H    0.231436
    18  H    0.276857
    19  H    0.242634
    20  H    0.249325
    21  H    0.276588
    22  H    0.351489
    23  C    0.565209
    24  Cl   0.404400
    25  H    0.254325
    26  H    0.289804
    27  F   -0.046726
    28  F   -0.050453
    29  F   -0.131192
    30  O   -0.430401
    31  O   -0.369394
    32  C   -0.024971
    33  C   -0.389824
    34  C   -0.896961
    35  H    0.260022
    36  H    0.246509
    37  H    0.250618
    38  H    0.218544
    39  H    0.256687
 Sum of Mulliken charges =  -1.00000

 Dipole moment (field-independent basis, Debye):
    X=             -1.7954    Y=             -1.9449    Z=              0.6633  Tot=              2.7288
 Quadrupole moment (field-independent basis, Debye-Ang):
   XX=           -191.4616   YY=           -162.8638   ZZ=           -154.5597
   XY=              0.6715   XZ=              3.7037   YZ=             -1.8586

  Exact polarizability:     287.792       2.152     201.219       6.841      10.865     143.946
 Approx polarizability:     285.587      -4.112     246.787      11.004      22.254     197.595

                      1                      2                      3
                      A                      A                      A
 Frequencies --     17.9246                20.6642                27.7754
 Red. masses --      6.2616                 5.9324                 4.0793
 Frc consts  --      0.0012                 0.0015                 0.0019
 IR Inten    --      0.8394                 0.1904                 0.1851

                      4                      5                      6
                      A                      A                      A
 Frequencies --     42.4580                42.5632                53.5253
 Red. masses --      6.6516                 3.0821                 7.2762
 Frc consts  --      0.0071                 0.0033                 0.0123
 IR Inten    --      0.6577                 1.9984                 0.6313

                      7                      8                      9
                      A                      A                      A
 Frequencies --     63.4234                70.2801                87.4585
 Red. masses --      3.2689                 4.8582                 6.4527
 Frc consts  --      0.0077                 0.0141                 0.0291
 IR Inten    --      0.6502                 4.4328                 3.6779

                     10                     11                     12
                      A                      A                      A
 Frequencies --     95.6161               110.4606               124.3794
 Red. masses --      5.7588                 1.6928                 5.5117
 Frc consts  --      0.0310                 0.0122                 0.0502
 IR Inten    --      3.0815                 0.7205                 0.9957

                     13                     14                     15
                      A                      A                      A
 Frequencies --    141.4279               143.1005               151.4225
 Red. masses --      6.3163                10.6313                 6.2515
 Frc consts  --      0.0744                 0.1283                 0.0845
 IR Inten    --      3.0069                 8.6982                 9.6425

                     16                     17                     18
                      A                      A                      A
 Frequencies --    166.1618               175.1378               213.9718
 Red. masses --      5.3792                10.1966                 1.2002
 Frc consts  --      0.0875                 0.1843                 0.0324
 IR Inten    --      0.3823                14.6682                 0.2822

                     19                     20                     21
                      A                      A                      A
 Frequencies --    215.4401               237.2237               244.1140
 Red. masses --      3.3117                 6.4124                 1.2547
 Frc consts  --      0.0906                 0.2126                 0.0441
 IR Inten    --     10.4500                 6.7591                 2.4520

                     22                     23                     24
                      A                      A                      A
 Frequencies --    272.0380               291.3333               307.6755
 Red. masses --      5.0489                 4.3023                14.8728
 Frc consts  --      0.2201                 0.2151                 0.8295
 IR Inten    --      8.1589                 1.3284                 2.3271

                     25                     26                     27
                      A                      A                      A
 Frequencies --    320.4404               344.2795               357.3906
 Red. masses --      6.1781                 5.2465                 6.2462
 Frc consts  --      0.3738                 0.3664                 0.4701
 IR Inten    --      7.8704                 4.7087                 6.0676

                     28                     29                     30
                      A                      A                      A
 Frequencies --    371.9372               425.6069               468.2970
 Red. masses --      7.0801                 6.3647                 4.3867
 Frc consts  --      0.5771                 0.6793                 0.5668
 IR Inten    --      0.1534                12.7127                 1.4987

                     31                     32                     33
                      A                      A                      A
 Frequencies --    473.6906               520.5928               527.9889
 Red. masses --      5.7213                 6.0064                 7.4779
 Frc consts  --      0.7564                 0.9591                 1.2282
 IR Inten    --      3.5608                62.8446                19.8547

                     34                     35                     36
                      A                      A                      A
 Frequencies --    545.1396               585.9087               603.1742
 Red. masses --      7.6816                 1.9241                 9.7666
 Frc consts  --      1.3450                 0.3892                 2.0935
 IR Inten    --     11.2228                 3.0516                 7.0572

                     37                     38                     39
                      A                      A                      A
 Frequencies --    649.3874               655.6586               671.8405
 Red. masses --      4.3864                 4.8979                 7.9283
 Frc consts  --      1.0899                 1.2406                 2.1084
 IR Inten    --     36.6385                 5.0449                18.5784

                     40                     41                     42
                      A                      A                      A
 Frequencies --    704.4758               734.2311               751.9798
 Red. masses --      7.6495                 4.9637                 4.5685
 Frc consts  --      2.2367                 1.5766                 1.5221
 IR Inten    --      5.5732                 2.0950                 7.8230

                     43                     44                     45
                      A                      A                      A
 Frequencies --    757.5020               789.8598               807.8263
 Red. masses --      1.2495                 8.6943                 5.0345
 Frc consts  --      0.4224                 3.1958                 1.9357
 IR Inten    --      7.4890                36.9856                59.4467

                     46                     47                     48
                      A                      A                      A
 Frequencies --    822.3001               853.8432               873.8833
 Red. masses --      1.4550                 1.4185                 3.9582
 Frc consts  --      0.5797                 0.6093                 1.7810
 IR Inten    --      8.7031                31.6526                61.0195

                     49                     50                     51
                      A                      A                      A
 Frequencies --    904.0255               917.2400               939.1666
 Red. masses --      1.1737                 2.4516                 2.2109
 Frc consts  --      0.5651                 1.2152                 1.1489
 IR Inten    --      3.6534                13.9508                16.6759

                     52                     53                     54
                      A                      A                      A
 Frequencies --    949.5311               985.4897              1009.1413
 Red. masses --      1.6121                 1.3081                 2.0362
 Frc consts  --      0.8564                 0.7485                 1.2217
 IR Inten    --     20.0734                 0.1968                54.7159

                     55                     56                     57
                      A                      A                      A
 Frequencies --   1019.0918              1045.3872              1062.7795
 Red. masses --      2.5173                 5.8575                 1.6972
 Frc consts  --      1.5404                 3.7715                 1.1295
 IR Inten    --     14.5793                20.6604                33.3046

                     58                     59                     60
                      A                      A                      A
 Frequencies --   1081.3746              1103.4493              1107.9532
 Red. masses --      2.1329                 1.8061                 2.3738
 Frc consts  --      1.4695                 1.2957                 1.7169
 IR Inten    --      7.0104                 0.7653                 4.8748

                     61                     62                     63
                      A                      A                      A
 Frequencies --   1149.1932              1156.2999              1165.4906
 Red. masses --      5.3631                 2.6087                 2.3450
 Frc consts  --      4.1730                 2.0550                 1.8767
 IR Inten    --     48.6081               188.7959                 0.6227

                     64                     65                     66
                      A                      A                      A
 Frequencies --   1172.1414              1184.0587              1194.1653
 Red. masses --      1.5949                11.6043                 1.6700
 Frc consts  --      1.2911                 9.5855                 1.4032
 IR Inten    --     38.5664               268.1239                 2.0577

                     67                     68                     69
                      A                      A                      A
 Frequencies --   1224.5016              1284.6586              1288.5578
 Red. masses --      4.4715                 1.2207                 1.8062
 Frc consts  --      3.9502                 1.1870                 1.7670
 IR Inten    --    357.1946                10.7029               197.6151

                     70                     71                     72
                      A                      A                      A
 Frequencies --   1294.0994              1299.8337              1305.9277
 Red. masses --      2.2081                 1.8575                 1.9978
 Frc consts  --      2.1788                 1.8491                 2.0074
 IR Inten    --     64.0469               224.2588               215.6174

                     73                     74                     75
                      A                      A                      A
 Frequencies --   1318.2028              1334.1912              1349.0928
 Red. masses --      1.8204                 1.2712                 1.6284
 Frc consts  --      1.8637                 1.3332                 1.7462
 IR Inten    --    198.4209                20.8883                37.8195

                     76                     77                     78
                      A                      A                      A
 Frequencies --   1356.6986              1387.8857              1415.7978
 Red. masses --      2.5645                 3.3408                 1.3369
 Frc consts  --      2.7811                 3.7914                 1.5789
 IR Inten    --    115.4853               378.0028                20.1578

                     79                     80                     81
                      A                      A                      A
 Frequencies --   1422.1786              1440.2218              1455.0668
 Red. masses --      1.2774                 4.9155                 1.5233
 Frc consts  --      1.5223                 6.0072                 1.9002
 IR Inten    --      6.8966               567.4264                20.2627

                     82                     83                     84
                      A                      A                      A
 Frequencies --   1468.3250              1484.2633              1498.6683
 Red. masses --      4.1182                 1.1077                 1.0755
 Frc consts  --      5.2312                 1.4378                 1.4232
 IR Inten    --     44.4897                 8.5847                 4.9065

                     85                     86                     87
                      A                      A                      A
 Frequencies --   1508.6727              1516.4496              1517.8563
 Red. masses --      1.0485                 1.0689                 1.0671
 Frc consts  --      1.4061                 1.4482                 1.4485
 IR Inten    --      8.0057                 5.6926                24.7046

                     88                     89                     90
                      A                      A                      A
 Frequencies --   1521.7757              1528.9569              1546.1044
 Red. masses --      1.0459                 1.0734                 3.3044
 Frc consts  --      1.4271                 1.4785                 4.6540
 IR Inten    --     12.4458                12.4249               229.5030

                     91                     92                     93
                      A                      A                      A
 Frequencies --   1634.5245              1673.8096              1681.9325
 Red. masses --      4.6490                 5.6854                 6.1441
 Frc consts  --      7.3181                 9.3847                10.2407
 IR Inten    --    181.4919               254.2290                97.4770

                     94                     95                     96
                      A                      A                      A
 Frequencies --   1717.2422              1808.4771              2730.4642
 Red. masses --      1.8713                 7.3098                 1.1134
 Frc consts  --      3.2512                14.0859                 4.8908
 IR Inten    --    618.2489               351.7782              2005.9411

                     97                     98                     99
                      A                      A                      A
 Frequencies --   3055.2017              3055.5439              3065.8857
 Red. masses --      1.0428                 1.0375                 1.0594
 Frc consts  --      5.7347                 5.7072                 5.8670
 IR Inten    --     64.1669                28.1944                20.3189

                    100                    101                    102
                      A                      A                      A
 Frequencies --   3066.4029              3071.7485              3096.8055
 Red. masses --      1.0614                 1.0681                 1.1009
 Frc consts  --      5.8800                 5.9381                 6.2205
 IR Inten    --     64.1406                26.6341                11.9316

                    103                    104                    105
                      A                      A                      A
 Frequencies --   3113.3703              3123.1793              3128.0612
 Red. masses --      1.0977                 1.0975                 1.0984
 Frc consts  --      6.2689                 6.3072                 6.3320
 IR Inten    --     18.8336                41.9637                 6.2578

                    106                    107                    108
                      A                      A                      A
 Frequencies --   3132.1323              3143.5963              3145.3366
 Red. masses --      1.1008                 1.1017                 1.1044
 Frc consts  --      6.3627                 6.4148                 6.4372
 IR Inten    --     36.9513                16.8831                68.4550

                    109                    110                    111
                      A                      A                      A
 Frequencies --   3218.2010              3223.4489              3272.2965
 Red. masses --      1.0925                 1.0913                 1.0926
 Frc consts  --      6.6664                 6.6809                 6.8932
 IR Inten    --     15.7998                 8.2370                 1.7984

 - Thermochemistry -
 -------------------
 Temperature   298.150 Kelvin.  Pressure   1.00000 Atm.
 Atom     1 has atomic number  6 and mass  12.00000

 Molecular mass:   354.07200 amu.
 Principal axes and moments of inertia in atomic units:
                           1         2         3
     Eigenvalues --  4328.99170********************
           X            0.99989   0.01418  -0.00358
           Y           -0.01420   0.99988  -0.00670
           Z            0.00349   0.00675   0.99997
 This molecule is an asymmetric top.
 Rotational symmetry number  1.
 Warning -- assumption of classical behavior for rotation
           may cause significant error
 Rotational temperatures (Kelvin)      0.02001     0.00532     0.00442
 Rotational constants (GHZ):           0.41690     0.11083     0.09218
 Zero-point vibrational energy     771617.9 (Joules/Mol)
                                  184.42110 (Kcal/Mol)
 Warning -- explicit consideration of  36 degrees of freedom as
           vibrations may cause significant error
 Vibrational temperatures:     25.79    29.73    39.96    61.09    61.24
          (Kelvin)             77.01    91.25   101.12   125.83   137.57
                              158.93   178.95   203.48   205.89   217.86
                              239.07   251.98   307.86   309.97   341.31
                              351.23   391.40   419.16   442.68   461.04
                              495.34   514.21   535.13   612.35   673.78
                              681.54   749.02   759.66   784.33   842.99
                              867.83   934.32   943.35   966.63  1013.58
                             1056.39  1081.93  1089.88  1136.43  1162.28
                             1183.11  1228.49  1257.32  1300.69  1319.70
                             1351.25  1366.16  1417.90  1451.93  1466.25
                             1504.08  1529.10  1555.86  1587.62  1594.10
                             1653.43  1663.66  1676.88  1686.45  1703.60
                             1718.14  1761.78  1848.34  1853.95  1861.92
                             1870.17  1878.94  1896.60  1919.60  1941.04
                             1951.99  1996.86  2037.02  2046.20  2072.16
                             2093.52  2112.59  2135.52  2156.25  2170.64
                             2181.83  2183.86  2189.50  2199.83  2224.50
                             2351.72  2408.24  2419.93  2470.73  2602.00
                             3928.53  4395.75  4396.25  4411.13  4411.87
                             4419.56  4455.61  4479.45  4493.56  4500.58
                             4506.44  4522.93  4525.44  4630.27  4637.82
                             4708.10

 Zero-point correction=                           0.293894 (Hartree/Particle)
 Thermal correction to Energy=                    0.318045
 Thermal correction to Enthalpy=                  0.318989
 Thermal correction to Gibbs Free Energy=         0.235734
 Sum of electronic and zero-point Energies=          -1658.232848
 Sum of electronic and thermal Energies=             -1658.208697
 Sum of electronic and thermal Enthalpies=           -1658.207753
 Sum of electronic and thermal Free Energies=        -1658.291008

                     E (Thermal)             CV                S
                      KCal/Mol        Cal/Mol-Kelvin    Cal/Mol-Kelvin
 Total                  199.576             84.707            175.224
 Electronic               0.000              0.000              0.000
 Translational            0.889              2.981             43.487
 Rotational               0.889              2.981             35.577
 Vibrational            197.799             78.745             96.160
 Vibration     1          0.593              1.986              6.852
 Vibration     2          0.593              1.986              6.569
 Vibration     3          0.593              1.984              5.982
 Vibration     4          0.595              1.980              5.141
 Vibration     5          0.595              1.980              5.136
 Vibration     6          0.596              1.976              4.683
 Vibration     7          0.597              1.972              4.348
 Vibration     8          0.598              1.968              4.145
 Vibration     9          0.601              1.958              3.716
 Vibration    10          0.603              1.952              3.542
 Vibration    11          0.606              1.941              3.261
 Vibration    12          0.610              1.929              3.031
 Vibration    13          0.615              1.912              2.784
 Vibration    14          0.616              1.910              2.762
 Vibration    15          0.619              1.901              2.654
 Vibration    16          0.624              1.884              2.478
 Vibration    17          0.627              1.873              2.380
 Vibration    18          0.644              1.820              2.010
 Vibration    19          0.645              1.817              1.997
 Vibration    20          0.656              1.784              1.824
 Vibration    21          0.659              1.773              1.773
 Vibration    22          0.675              1.725              1.583
 Vibration    23          0.687              1.690              1.466
 Vibration    24          0.698              1.659              1.375
 Vibration    25          0.706              1.634              1.308
 Vibration    26          0.723              1.587              1.192
 Vibration    27          0.733              1.560              1.133
 Vibration    28          0.744              1.530              1.072
 Vibration    29          0.787              1.415              0.873
 Vibration    30          0.825              1.320              0.742
 Vibration    31          0.830              1.308              0.727
 Vibration    32          0.876              1.204              0.609
 Vibration    33          0.883              1.188              0.592
 Vibration    34          0.900              1.150              0.554
 Vibration    35          0.943              1.062              0.475
 Vibration    36          0.962              1.025              0.444

                           ! Non-Optimized Parameters !
 Normal termination of Gaussian 16 at Mon Mar 22 22:41:17 2021.
