 Gaussian 16, Revision C.01,
 Gaussian 16:  ES64L-G16RevC.01  3-Jul-2019

 ----------------------------------------------------------------------
 # DSDPBEP86/AUG-cc-PVTZ SCF=Tight INT(grid=ultrafine) MaxDisk=1400000M
 B
 ----------------------------------------------------------------------

 ----------------------------------
 29CA_carboxy.DSDPBEP86_AUG-cc-PVTZ
 ----------------------------------
 Symbolic Z-matrix:
 Charge = -1 Multiplicity = 1

                         Standard orientation:
 ---------------------------------------------------------------------
 Center     Atomic      Atomic             Coordinates (Angstroms)
 Number     Number       Type             X           Y           Z
 ---------------------------------------------------------------------
      1          6           0        0.457110    0.132279   -0.000053
      2          7           0       -0.886967   -0.236835   -0.000068
      3          6           0       -1.358391   -1.505927    0.000005
      4          8           0       -0.719580   -2.539925    0.000107
      5          8           0       -2.710025   -1.487775   -0.000051
      6          6           0       -3.342912   -2.758800    0.000019
      7          6           0       -4.838697   -2.514274   -0.000089
      8          6           0       -5.615606   -3.827597   -0.000022
      9          6           0        1.524078   -0.774058   -0.000010
     10          6           0        2.838197   -0.309071   -0.000015
     11          6           0        3.096794    1.058677   -0.000043
     12          6           0        2.039304    1.958689   -0.000083
     13          6           0        0.730512    1.508412   -0.000091
     14          1           0       -1.593255    0.546220   -0.000160
     15          1           0       -3.030066   -3.326561    0.882117
     16          1           0       -3.029962   -3.326710   -0.881945
     17          1           0       -5.095959   -1.913216   -0.876078
     18          1           0       -5.096061   -1.913064    0.875765
     19          1           0       -5.377908   -4.428863   -0.882002
     20          1           0       -6.692996   -3.651157   -0.000098
     21          1           0       -5.378008   -4.428714    0.882086
     22          1           0        1.329433   -1.835112    0.000020
     23          6           0        3.960831   -1.307721    0.000050
     24         17           0        4.730568    1.687647    0.000000
     25          1           0        2.241327    3.023086   -0.000105
     26          1           0       -0.087557    2.231138   -0.000119
     27          9           0        3.517454   -2.573473    0.000070
     28          9           0        4.757786   -1.186766   -1.077940
     29          9           0        4.757719   -1.186704    1.078080
     30          8           0       -1.571319    3.678091   -0.000022
     31          8           0       -2.715663    1.746953   -0.000318
     32          6           0       -2.617253    3.004818   -0.000086
     33          6           0       -3.942839    3.794098    0.000079
     34          6           0       -5.196029    2.928797    0.000354
     35          1           0       -3.920526    4.455902   -0.871804
     36          1           0       -3.920240    4.456079    0.871816
     37          1           0       -5.214230    2.276718   -0.874571
     38          1           0       -6.105447    3.539030    0.000444
     39          1           0       -5.213965    2.276879    0.875407
 ---------------------------------------------------------------------

 SCF Done:  E(RDSDPBEP86) =  -1654.65467115     A.U. after   14 cycles
 E2(DSDPBEP86) =    -0.2218327102D+01 E(DSDPBEP86) =    -0.16568729982570D+04

 The electronic state is 1-A.
 Alpha  occ. eigenvalues -- -103.48019 -25.61842 -25.61449 -25.61448 -19.94128
 Alpha  occ. eigenvalues --  -19.87393 -19.80532 -19.79740 -14.99049 -10.99331
 Alpha  occ. eigenvalues --  -10.87301 -10.79425 -10.78003 -10.77401 -10.77152
 Alpha  occ. eigenvalues --  -10.75858 -10.73714 -10.73459 -10.73265 -10.73122
 Alpha  occ. eigenvalues --  -10.71636 -10.68576 -10.68404 -10.05520  -7.63195
 Alpha  occ. eigenvalues --   -7.62733  -7.62724  -1.48183  -1.38798  -1.38475
 Alpha  occ. eigenvalues --   -1.23153  -1.12677  -1.10709  -1.03298  -1.00799
 Alpha  occ. eigenvalues --   -0.98620  -0.91609  -0.88449  -0.86346  -0.81025
 Alpha  occ. eigenvalues --   -0.80910  -0.77533  -0.75828  -0.69137  -0.67595
 Alpha  occ. eigenvalues --   -0.65926  -0.65465  -0.64323  -0.63865  -0.62369
 Alpha  occ. eigenvalues --   -0.59024  -0.56928  -0.52845  -0.52835  -0.52799
 Alpha  occ. eigenvalues --   -0.52337  -0.50567  -0.49883  -0.49208  -0.48309
 Alpha  occ. eigenvalues --   -0.47159  -0.47148  -0.46666  -0.46486  -0.44812
 Alpha  occ. eigenvalues --   -0.44484  -0.43634  -0.43054  -0.42181  -0.42005
 Alpha  occ. eigenvalues --   -0.40076  -0.39669  -0.38836  -0.38495  -0.37800
 Alpha  occ. eigenvalues --   -0.36319  -0.35743  -0.35444  -0.35439  -0.34623
 Alpha  occ. eigenvalues --   -0.33955  -0.32826  -0.31281  -0.30420  -0.30229
 Alpha  occ. eigenvalues --   -0.28611  -0.28571  -0.22879  -0.21103  -0.20642
 Alpha  occ. eigenvalues --   -0.19628  -0.17407
 Alpha virt. eigenvalues --    0.07423   0.08943   0.09495   0.09641   0.10493
 Alpha virt. eigenvalues --    0.10709   0.11397   0.11512   0.11824   0.12416
 Alpha virt. eigenvalues --    0.12676   0.12797   0.13212   0.13805   0.13992

 Mulliken charges:
               1
     1  C    0.525121
     2  N   -0.269025
     3  C    0.272376
     4  O   -0.907152
     5  O   -0.232659
     6  C   -0.320006
     7  C   -0.495927
     8  C   -0.990804
     9  C   -1.042063
    10  C    0.600545
    11  C    0.650214
    12  C   -0.871133
    13  C   -0.642299
    14  H    0.617521
    15  H    0.318311
    16  H    0.318297
    17  H    0.229659
    18  H    0.229677
    19  H    0.277138
    20  H    0.282425
    21  H    0.277138
    22  H    0.474675
    23  C    1.201889
    24  Cl  -0.518612
    25  H    0.325408
    26  H    1.056784
    27  F   -0.367418
    28  F   -0.425804
    29  F   -0.425798
    30  O   -1.018195
    31  O   -0.690822
    32  C    0.479367
    33  C   -0.238351
    34  C   -0.944952
    35  H    0.212914
    36  H    0.213045
    37  H    0.280172
    38  H    0.278269
    39  H    0.280075
 Sum of Mulliken charges =  -1.00000

 Dipole moment (field-independent basis, Debye):
    X=             -0.0956    Y=             -5.6552    Z=              0.0003  Tot=              5.6560
 Quadrupole moment (field-independent basis, Debye-Ang):
   XX=           -192.1542   YY=           -184.0619   ZZ=           -144.9276
   XY=             20.7157   XZ=             -0.0012   YZ=              0.0010

 Normal termination of Gaussian 16 at Wed Mar 24 14:21:04 2021.
