 Gaussian 16, Revision C.01,

 ----------------------------------------------------------------------
 # M062X/6-311+G* SCF=Tight INT(grid=ultrafine) OPT=CalcFC IOP(2/17=4)
 EmpiricalDispersion=GD3 SCRF=(SMD,Solvent=n-Pentadecane) MaxDisk=10000
 MB
 ----------------------------------------------------------------------

 --------------------------------------------------
 29CA_carboxy_c2.M062X_6-311pGd_opt_Pentadecane_GD3
 --------------------------------------------------
 Symbolic Z-matrix:
 Charge = -1 Multiplicity = 1

 SCF Done:  E(RM062X) =  -1658.48518103     A.U. after   16 cycles
 SCF Done:  E(RM062X) =  -1658.52138900     A.U. after   15 cycles
 SCF Done:  E(RM062X) =  -1658.53669799     A.U. after   16 cycles
 SCF Done:  E(RM062X) =  -1658.54301389     A.U. after   17 cycles
 SCF Done:  E(RM062X) =  -1658.50873909     A.U. after   17 cycles
 SCF Done:  E(RM062X) =  -1658.54965043     A.U. after   14 cycles
 SCF Done:  E(RM062X) =  -1658.55510080     A.U. after   16 cycles
 SCF Done:  E(RM062X) =  -1658.56029799     A.U. after   15 cycles
 SCF Done:  E(RM062X) =  -1658.49175285     A.U. after   17 cycles
 SCF Done:  E(RM062X) =  -1658.55942395     A.U. after   15 cycles
 SCF Done:  E(RM062X) =  -1658.56748131     A.U. after   10 cycles
 SCF Done:  E(RM062X) =  -1658.56748346     A.U. after   10 cycles
 SCF Done:  E(RM062X) =  -1658.56748578     A.U. after   11 cycles
 SCF Done:  E(RM062X) =  -1658.56748618     A.U. after    9 cycles
 SCF Done:  E(RM062X) =  -1658.56748716     A.U. after   10 cycles
 SCF Done:  E(RM062X) =  -1658.56748729     A.U. after   10 cycles
 SCF Done:  E(RM062X) =  -1658.56748710     A.U. after    9 cycles
 SCF Done:  E(RM062X) =  -1658.56748687     A.U. after    8 cycles
 SCF Done:  E(RM062X) =  -1658.56748679     A.U. after    8 cycles
 Optimization completed.
    -- Stationary point found.
 Normal termination of Gaussian 16 at Mon Mar 22 15:00:37 2021.
 Gaussian 16:  ES64L-G16RevC.01  3-Jul-2019

 ----------------------------------------------------------------------
 # M062X/6-311+G* SCF=Tight INT(grid=ultrafine) EmpiricalDispersion=GD3
  SCRF=(SMD,Solvent=n-Pentadecane) Freq=Noraman MaxDisk=10000MB geom=ch
 eck guess=read IOP(2/17=4)
 ----------------------------------------------------------------------

 --------------------------------------------------
 29CA_carboxy_c2.M062X_6-311pGd_opt_Pentadecane_GD3
 --------------------------------------------------
 Structure from the checkpoint file:  "29CA_carboxy_c2.M062X_6-311pGd_opt_Pentadecane_GD3.chk"
 Charge = -1 Multiplicity = 1

                         Standard orientation:
 ---------------------------------------------------------------------
 Center     Atomic      Atomic             Coordinates (Angstroms)
 Number     Number       Type             X           Y           Z
 ---------------------------------------------------------------------
      1          6           0       -0.300246   -1.073319    0.046904
      2          7           0        1.055880   -0.755401    0.010644
      3          6           0        2.071772   -1.650335   -0.062620
      4          8           0        1.988514   -2.860738   -0.140390
      5          8           0        3.252028   -1.000917   -0.042921
      6          6           0        4.414988   -1.822084   -0.121882
      7          6           0        5.621669   -0.907752   -0.080566
      8          6           0        6.918346   -1.706908   -0.157954
      9          6           0       -1.201272   -0.002772   -0.076922
     10          6           0       -2.568728   -0.222481   -0.013353
     11          6           0       -3.061807   -1.518435    0.160874
     12          6           0       -2.179238   -2.577583    0.269011
     13          6           0       -0.806002   -2.366426    0.216670
     14          1           0        1.310117    0.265539    0.101037
     15          1           0        4.387430   -2.404600   -1.047643
     16          1           0        4.420249   -2.527608    0.714462
     17          1           0        5.587970   -0.318619    0.839884
     18          1           0        5.557720   -0.200022   -0.911411
     19          1           0        7.004231   -2.407584    0.677371
     20          1           0        7.789275   -1.049145   -0.127931
     21          1           0        6.973610   -2.286769   -1.083557
     22          1           0       -0.812949    0.999299   -0.259098
     23          6           0       -3.502262    0.949378   -0.145641
     24         17           0       -4.778129   -1.849352    0.242816
     25          1           0       -2.565519   -3.581233    0.401162
     26          1           0       -0.132007   -3.204702    0.304572
     27          9           0       -2.851734    2.103209   -0.283497
     28          9           0       -4.318066    0.831243   -1.211465
     29          9           0       -4.304362    1.082893    0.930226
     30          8           0        0.214241    2.704089   -1.021791
     31          8           0        1.668859    1.834846    0.440005
     32          6           0        1.155377    2.787333   -0.211393
     33          6           0        1.738352    4.189982    0.034754
     34          6           0        2.995056    4.218367    0.892323
     35          1           0        0.942649    4.786315    0.494414
     36          1           0        1.917767    4.643238   -0.944955
     37          1           0        2.803355    3.794046    1.879090
     38          1           0        3.365354    5.240245    1.023153
     39          1           0        3.790080    3.622247    0.439237
 ---------------------------------------------------------------------

 SCF Done:  E(RM062X) =  -1658.56748679     A.U. after    1 cycles

 The electronic state is 1-A.
 Alpha  occ. eigenvalues -- -102.63894 -25.22748 -25.22740 -25.22731 -19.60952
 Alpha  occ. eigenvalues --  -19.54992 -19.48756 -19.47886 -14.71335 -10.75592
 Alpha  occ. eigenvalues --  -10.64242 -10.56871 -10.55103 -10.54638 -10.54562
 Alpha  occ. eigenvalues --  -10.53304 -10.51516 -10.50425 -10.50368 -10.49435
 Alpha  occ. eigenvalues --  -10.49243 -10.45848 -10.45788  -9.78172  -7.50682
 Alpha  occ. eigenvalues --   -7.50010  -7.50006  -1.42226  -1.32784  -1.32517
 Alpha  occ. eigenvalues --   -1.18939  -1.08854  -1.07499  -1.00191  -0.97694
 Alpha  occ. eigenvalues --   -0.96030  -0.89554  -0.85484  -0.84481  -0.79673
 Alpha  occ. eigenvalues --   -0.79138  -0.76108  -0.74350  -0.68876  -0.67055
 Alpha  occ. eigenvalues --   -0.65497  -0.65144  -0.64612  -0.63649  -0.62987
 Alpha  occ. eigenvalues --   -0.58877  -0.58112  -0.53738  -0.53600  -0.52840
 Alpha  occ. eigenvalues --   -0.52744  -0.52097  -0.50954  -0.50054  -0.48621
 Alpha  occ. eigenvalues --   -0.48609  -0.48381  -0.47341  -0.46454  -0.46340
 Alpha  occ. eigenvalues --   -0.45865  -0.45643  -0.44785  -0.43912  -0.43625
 Alpha  occ. eigenvalues --   -0.42150  -0.41648  -0.40807  -0.39972  -0.39244
 Alpha  occ. eigenvalues --   -0.38800  -0.38326  -0.37723  -0.37461  -0.36074
 Alpha  occ. eigenvalues --   -0.36022  -0.35136  -0.34056  -0.32991  -0.32291
 Alpha  occ. eigenvalues --   -0.31748  -0.30877  -0.28149  -0.24110  -0.23944
 Alpha  occ. eigenvalues --   -0.22686  -0.22211
 Alpha virt. eigenvalues --    0.04457   0.05121   0.05452   0.05602   0.06460
 Alpha virt. eigenvalues --    0.06716   0.07445   0.07572   0.07830   0.08385
 Alpha virt. eigenvalues --    0.09231   0.09379   0.09794   0.10095   0.10307

 Mulliken charges:
               1
     1  C   -0.153090
     2  N   -0.576424
     3  C   -0.052358
     4  O   -0.358213
     5  O   -0.026463
     6  C   -0.293866
     7  C   -0.155544
     8  C   -1.097350
     9  C   -0.489124
    10  C   -0.390318
    11  C   -0.057905
    12  C   -0.358218
    13  C   -0.249148
    14  H    0.564236
    15  H    0.254575
    16  H    0.254579
    17  H    0.268924
    18  H    0.268331
    19  H    0.257883
    20  H    0.270985
    21  H    0.258775
    22  H    0.410969
    23  C    0.590582
    24  Cl   0.431305
    25  H    0.274610
    26  H    0.295178
    27  F   -0.120492
    28  F   -0.059301
    29  F   -0.066509
    30  O   -0.453058
    31  O   -0.451330
    32  C    0.056200
    33  C   -0.356622
    34  C   -0.951089
    35  H    0.254402
    36  H    0.252363
    37  H    0.258380
    38  H    0.239330
    39  H    0.254817
 Sum of Mulliken charges =  -1.00000

 Dipole moment (field-independent basis, Debye):
    X=              2.5947    Y=             -5.5101    Z=              1.4862  Tot=              6.2691
 Quadrupole moment (field-independent basis, Debye-Ang):
   XX=           -170.1404   YY=           -172.7096   ZZ=           -150.8346
   XY=             -1.3616   XZ=             -3.3780   YZ=              3.0237

  Exact polarizability:     309.614       5.284     238.291       3.145      -5.883     152.454
 Approx polarizability:     285.225       0.825     251.901       4.162      -8.522     182.618

                      1                      2                      3
                      A                      A                      A
 Frequencies --     22.6964                27.0411                41.0632
 Red. masses --      5.0936                 7.5814                 2.2010
 Frc consts  --      0.0015                 0.0033                 0.0022
 IR Inten    --      0.7496                 0.1499                 0.1798

                      4                      5                      6
                      A                      A                      A
 Frequencies --     44.1128                50.5314                51.3178
 Red. masses --      2.5265                 3.4205                 3.0540
 Frc consts  --      0.0029                 0.0051                 0.0047
 IR Inten    --      0.0086                 1.0230                 0.6324

                      7                      8                      9
                      A                      A                      A
 Frequencies --     62.0527                74.2428                86.6526
 Red. masses --      6.6034                 8.0296                 5.0687
 Frc consts  --      0.0150                 0.0261                 0.0224
 IR Inten    --      1.4046                 0.4990                 1.2791

                     10                     11                     12
                      A                      A                      A
 Frequencies --     93.1139                97.1834               118.4896
 Red. masses --      6.7050                 6.1989                 7.3197
 Frc consts  --      0.0343                 0.0345                 0.0605
 IR Inten    --     12.4134                 6.7873                 6.6533

                     13                     14                     15
                      A                      A                      A
 Frequencies --    124.8311               141.1037               145.0480
 Red. masses --      5.3154                 7.8677                 4.4979
 Frc consts  --      0.0488                 0.0923                 0.0558
 IR Inten    --      3.1747                11.5855                 9.4250

                     16                     17                     18
                      A                      A                      A
 Frequencies --    153.2395               176.1737               188.0832
 Red. masses --      8.8209                 7.8379                 6.1401
 Frc consts  --      0.1220                 0.1433                 0.1280
 IR Inten    --      1.6860                 5.6886                 3.8953

                     19                     20                     21
                      A                      A                      A
 Frequencies --    217.8772               240.4359               256.3369
 Red. masses --      7.7065                 1.1286                 1.2225
 Frc consts  --      0.2155                 0.0384                 0.0473
 IR Inten    --      4.1076                 0.0012                 0.4305

                     22                     23                     24
                      A                      A                      A
 Frequencies --    258.0626               307.8435               315.6983
 Red. masses --      3.5789                14.5969                 4.1979
 Frc consts  --      0.1404                 0.8150                 0.2465
 IR Inten    --      1.3609                 0.9351                30.7501

                     25                     26                     27
                      A                      A                      A
 Frequencies --    325.6285               351.3021               358.7021
 Red. masses --      7.2928                 5.6470                 5.5924
 Frc consts  --      0.4556                 0.4106                 0.4240
 IR Inten    --      0.5474                 7.0070                14.8272

                     28                     29                     30
                      A                      A                      A
 Frequencies --    370.5260               429.7394               471.5565
 Red. masses --      7.7887                 6.7623                 6.2929
 Frc consts  --      0.6300                 0.7358                 0.8245
 IR Inten    --      6.0439                16.7361                 4.5228

                     31                     32                     33
                      A                      A                      A
 Frequencies --    473.5704               510.8466               531.9780
 Red. masses --      4.2854                 5.3407                 7.2721
 Frc consts  --      0.5662                 0.8212                 1.2125
 IR Inten    --      2.6947                 7.5001                35.3415

                     34                     35                     36
                      A                      A                      A
 Frequencies --    546.6521               593.4341               604.4318
 Red. masses --      7.4238                 2.0388                 9.5300
 Frc consts  --      1.3071                 0.4230                 2.0513
 IR Inten    --      8.8119                 5.6160                 4.5518

                     37                     38                     39
                      A                      A                      A
 Frequencies --    654.3829               662.3677               671.8923
 Red. masses --      5.1216                 4.2124                 8.5196
 Frc consts  --      1.2922                 1.0889                 2.2660
 IR Inten    --      3.3330                48.6741                23.8573

                     40                     41                     42
                      A                      A                      A
 Frequencies --    706.5979               736.8844               762.4079
 Red. masses --      7.4198                 5.3591                 1.5973
 Frc consts  --      2.1827                 1.7145                 0.5470
 IR Inten    --     16.0297                 0.9320                 2.6900

                     43                     44                     45
                      A                      A                      A
 Frequencies --    763.0302               800.5920               806.9678
 Red. masses --      2.6162                 8.1991                 8.5817
 Frc consts  --      0.8974                 3.0963                 3.2926
 IR Inten    --      4.8431                22.7817                57.5332

                     46                     47                     48
                      A                      A                      A
 Frequencies --    826.7993               851.0367               883.8395
 Red. masses --      1.4841                 1.4301                 3.8499
 Frc consts  --      0.5978                 0.6103                 1.7719
 IR Inten    --      9.7850                45.4658                52.6285

                     49                     50                     51
                      A                      A                      A
 Frequencies --    905.1153               918.5729               942.3813
 Red. masses --      1.1530                 2.7305                 2.3244
 Frc consts  --      0.5565                 1.3575                 1.2163
 IR Inten    --      3.4592                49.8810                39.5284

                     52                     53                     54
                      A                      A                      A
 Frequencies --    972.8556               997.8652              1019.2497
 Red. masses --      1.3758                 1.3170                 1.5846
 Frc consts  --      0.7672                 0.7727                 0.9699
 IR Inten    --     10.4552                 3.8038                14.8548

                     55                     56                     57
                      A                      A                      A
 Frequencies --   1027.9062              1043.5777              1058.3942
 Red. masses --      4.7405                 4.6926                 1.3088
 Frc consts  --      2.9511                 3.0110                 0.8638
 IR Inten    --      4.7125                16.6506                78.2259

                     58                     59                     60
                      A                      A                      A
 Frequencies --   1078.0202              1108.9541              1113.3814
 Red. masses --      2.4363                 1.8325                 2.2748
 Frc consts  --      1.6681                 1.3277                 1.6614
 IR Inten    --      3.8052                 3.5136                 8.4491

                     61                     62                     63
                      A                      A                      A
 Frequencies --   1145.3068              1160.3425              1163.1678
 Red. masses --      6.9661                 8.3603                 2.3974
 Frc consts  --      5.3837                 6.6320                 1.9110
 IR Inten    --     51.5900               308.5456               213.7518

                     64                     65                     66
                      A                      A                      A
 Frequencies --   1167.8260              1168.5479              1194.9673
 Red. masses --      2.0592                 2.0233                 1.6682
 Frc consts  --      1.6546                 1.6278                 1.4035
 IR Inten    --     37.7425                76.6298                 1.0694

                     67                     68                     69
                      A                      A                      A
 Frequencies --   1221.4743              1287.1932              1288.6357
 Red. masses --      4.7119                 4.5465                 1.1918
 Frc consts  --      4.1420                 4.4382                 1.1660
 IR Inten    --    462.5577               112.9666                 1.4880

                     70                     71                     72
                      A                      A                      A
 Frequencies --   1292.8290              1300.6775              1327.0343
 Red. masses --      1.1835                 3.0355                 1.7623
 Frc consts  --      1.1654                 3.0257                 1.8285
 IR Inten    --      0.1383               861.9873                64.3102

                     73                     74                     75
                      A                      A                      A
 Frequencies --   1333.7947              1334.6248              1343.1097
 Red. masses --      1.0753                 1.6276                 1.7577
 Frc consts  --      1.1271                 1.7081                 1.8682
 IR Inten    --      0.5113                30.6861                23.3052

                     76                     77                     78
                      A                      A                      A
 Frequencies --   1359.0163              1381.7962              1416.7322
 Red. masses --      2.8333                 2.9029                 1.4348
 Frc consts  --      3.0832                 3.2656                 1.6967
 IR Inten    --    230.9960               479.1870                86.8258

                     79                     80                     81
                      A                      A                      A
 Frequencies --   1427.9895              1444.8323              1450.0711
 Red. masses --      1.2730                 2.3885                 2.1789
 Frc consts  --      1.5294                 2.9377                 2.6994
 IR Inten    --      7.3400               298.0622               210.0739

                     82                     83                     84
                      A                      A                      A
 Frequencies --   1465.8190              1480.4101              1502.4398
 Red. masses --      3.9191                 1.1658                 1.0666
 Frc consts  --      4.9613                 1.5053                 1.4185
 IR Inten    --     23.5940                 8.3321                 1.4333

                     85                     86                     87
                      A                      A                      A
 Frequencies --   1511.2514              1518.6882              1521.6744
 Red. masses --      1.0389                 1.0377                 1.0696
 Frc consts  --      1.3980                 1.4101                 1.4593
 IR Inten    --      9.5670                10.5268                48.3693

                     88                     89                     90
                      A                      A                      A
 Frequencies --   1522.0994              1537.7062              1548.5980
 Red. masses --      1.0789                 1.1035                 2.8916
 Frc consts  --      1.4727                 1.5373                 4.0856
 IR Inten    --      0.3567                32.9097               237.8567

                     91                     92                     93
                      A                      A                      A
 Frequencies --   1634.3933              1666.2872              1684.1868
 Red. masses --      4.5563                 7.9468                 5.5490
 Frc consts  --      7.1709                12.9999                 9.2736
 IR Inten    --    291.9006               559.0246               230.4670

                     94                     95                     96
                      A                      A                      A
 Frequencies --   1696.2228              1791.6101              2777.4350
 Red. masses --      1.8774                 8.0400                 1.1137
 Frc consts  --      3.1826                15.2052                 5.0619
 IR Inten    --    473.3688               379.5771              2480.8489

                     97                     98                     99
                      A                      A                      A
 Frequencies --   3061.2060              3063.7735              3069.5436
 Red. masses --      1.0469                 1.0375                 1.0579
 Frc consts  --      5.7802                 5.7376                 5.8728
 IR Inten    --     63.2167                26.2328                24.6550

                    100                    101                    102
                      A                      A                      A
 Frequencies --   3071.9809              3086.4565              3101.3857
 Red. masses --      1.0577                 1.0603                 1.1002
 Frc consts  --      5.8809                 5.9509                 6.2348
 IR Inten    --     28.1659                39.0104                17.1884

                    103                    104                    105
                      A                      A                      A
 Frequencies --   3106.8484              3120.3484              3131.5108
 Red. masses --      1.1049                 1.1052                 1.0952
 Frc consts  --      6.2838                 6.3401                 6.3277
 IR Inten    --      8.6820                 0.0100                44.5172

                    106                    107                    108
                      A                      A                      A
 Frequencies --   3140.2616              3141.1899              3149.3544
 Red. masses --      1.1015                 1.1056                 1.0959
 Frc consts  --      6.3995                 6.4275                 6.4044
 IR Inten    --     36.9604                77.2582               252.4213

                    109                    110                    111
                      A                      A                      A
 Frequencies --   3153.5228              3230.0915              3280.1133
 Red. masses --      1.1019                 1.0920                 1.0928
 Frc consts  --      6.4563                 6.7125                 6.9272
 IR Inten    --     42.2520                 3.1797                 3.8488

 - Thermochemistry -
 -------------------
 Temperature   298.150 Kelvin.  Pressure   1.00000 Atm.
 Atom     1 has atomic number  6 and mass  12.00000

 Molecular mass:   354.07200 amu.
 Principal axes and moments of inertia in atomic units:
                           1         2         3
     Eigenvalues --  5858.41704********************
           X            1.00000   0.00206   0.00059
           Y           -0.00207   0.99996   0.00823
           Z           -0.00057  -0.00823   0.99997
 This molecule is an asymmetric top.
 Rotational symmetry number  1.
 Warning -- assumption of classical behavior for rotation
           may cause significant error
 Rotational temperatures (Kelvin)      0.01478     0.00583     0.00432
 Rotational constants (GHZ):           0.30806     0.12146     0.08996
 Zero-point vibrational energy     772494.8 (Joules/Mol)
                                  184.63070 (Kcal/Mol)
 Warning -- explicit consideration of  36 degrees of freedom as
           vibrations may cause significant error
 Vibrational temperatures:     32.66    38.91    59.08    63.47    72.70
          (Kelvin)             73.83    89.28   106.82   124.67   133.97
                              139.83   170.48   179.60   203.02   208.69
                              220.48   253.47   270.61   313.48   345.93
                              368.81   371.29   442.92   454.22   468.51
                              505.45   516.09   533.10   618.30   678.46
                              681.36   734.99   765.40   786.51   853.82
                              869.64   941.51   953.00   966.70  1016.64
                             1060.21  1096.93  1097.83  1151.87  1161.05
                             1189.58  1224.45  1271.65  1302.26  1321.62
                             1355.88  1399.72  1435.71  1466.47  1478.93
                             1501.48  1522.79  1551.03  1595.54  1601.91
                             1647.84  1669.47  1673.54  1680.24  1681.28
                             1719.29  1757.43  1851.98  1854.06  1860.09
                             1871.38  1909.31  1919.03  1920.23  1932.44
                             1955.32  1988.10  2038.36  2054.56  2078.79
                             2086.33  2108.99  2129.98  2161.68  2174.35
                             2185.05  2189.35  2189.96  2212.42  2228.09
                             2351.53  2397.42  2423.17  2440.49  2577.73
                             3996.11  4404.39  4408.09  4416.39  4419.90
                             4440.72  4462.20  4470.06  4489.49  4505.55
                             4518.14  4519.47  4531.22  4537.22  4647.38
                             4719.35

 Zero-point correction=                           0.294228 (Hartree/Particle)
 Thermal correction to Energy=                    0.318367
 Thermal correction to Enthalpy=                  0.319311
 Thermal correction to Gibbs Free Energy=         0.236595
 Sum of electronic and zero-point Energies=          -1658.273259
 Sum of electronic and thermal Energies=             -1658.249120
 Sum of electronic and thermal Enthalpies=           -1658.248176
 Sum of electronic and thermal Free Energies=        -1658.330891

                     E (Thermal)             CV                S
                      KCal/Mol        Cal/Mol-Kelvin    Cal/Mol-Kelvin
 Total                  199.778             84.528            174.089
 Electronic               0.000              0.000              0.000
 Translational            0.889              2.981             43.487
 Rotational               0.889              2.981             35.811
 Vibrational            198.001             78.567             94.791
 Vibration     1          0.593              1.985              6.383
 Vibration     2          0.593              1.984              6.035
 Vibration     3          0.594              1.981              5.207
 Vibration     4          0.595              1.980              5.065
 Vibration     5          0.595              1.977              4.796
 Vibration     6          0.596              1.977              4.766
 Vibration     7          0.597              1.972              4.391
 Vibration     8          0.599              1.966              4.038
 Vibration     9          0.601              1.958              3.734
 Vibration    10          0.602              1.954              3.594
 Vibration    11          0.603              1.951              3.510
 Vibration    12          0.609              1.934              3.125
 Vibration    13          0.610              1.928              3.024
 Vibration    14          0.615              1.912              2.789
 Vibration    15          0.616              1.908              2.736
 Vibration    16          0.619              1.899              2.632
 Vibration    17          0.628              1.872              2.369
 Vibration    18          0.633              1.856              2.247
 Vibration    19          0.646              1.814              1.977
 Vibration    20          0.658              1.779              1.800
 Vibration    21          0.666              1.752              1.687
 Vibration    22          0.667              1.749              1.675
 Vibration    23          0.698              1.659              1.374
 Vibration    24          0.703              1.644              1.332
 Vibration    25          0.710              1.624              1.282
 Vibration    26          0.728              1.573              1.160
 Vibration    27          0.734              1.557              1.128
 Vibration    28          0.743              1.533              1.078
 Vibration    29          0.791              1.405              0.860
 Vibration    30          0.828              1.313              0.733
 Vibration    31          0.830              1.309              0.728
 Vibration    32          0.866              1.226              0.632
 Vibration    33          0.887              1.179              0.583
 Vibration    34          0.902              1.147              0.551
 Vibration    35          0.951              1.046              0.461
 Vibration    36          0.963              1.022              0.442

                           ! Non-Optimized Parameters !
 Normal termination of Gaussian 16 at Mon Mar 22 23:02:21 2021.
