 Gaussian 16, Revision C.01,
 Gaussian 16:  ES64L-G16RevC.01  3-Jul-2019

 ----------------------------------------------------------------------
 # DSDPBEP86/AUG-cc-PVTZ SCF=Tight INT(grid=ultrafine) Pop=NBO MaxDisk=
 1400000MB
 ----------------------------------------------------------------------

 -------------------------------------
 29CA_carboxy_c2.DSDPBEP86_AUG-cc-PVTZ
 -------------------------------------
 Symbolic Z-matrix:
 Charge = -1 Multiplicity = 1

                         Standard orientation:
 ---------------------------------------------------------------------
 Center     Atomic      Atomic             Coordinates (Angstroms)
 Number     Number       Type             X           Y           Z
 ---------------------------------------------------------------------
      1          6           0        0.705701   -1.003520   -0.324081
      2          7           0       -0.628992   -0.900901   -0.672587
      3          6           0       -1.598618   -1.795289   -0.325763
      4          8           0       -1.465659   -2.820568    0.307221
      5          8           0       -2.777272   -1.374682   -0.823820
      6          6           0       -3.919565   -1.690269   -0.030103
      7          6           0       -5.065657   -0.846852   -0.548949
      8          6           0       -6.297915   -0.985439    0.339253
      9          6           0        1.470020    0.173302   -0.400378
     10          6           0        2.826887    0.162667   -0.117218
     11          6           0        3.448037   -1.032251    0.255683
     12          6           0        2.699861   -2.193712    0.344222
     13          6           0        1.339629   -2.190686    0.061198
     14          1           0       -0.991703    0.081706   -0.825880
     15          1           0       -3.697877   -1.429049    1.007280
     16          1           0       -4.134045   -2.762072   -0.095598
     17          1           0       -5.295325   -1.133786   -1.580139
     18          1           0       -4.724957    0.190970   -0.565019
     19          1           0       -6.635191   -2.024873    0.400959
     20          1           0       -7.130558   -0.388094   -0.039042
     21          1           0       -6.077690   -0.644585    1.354194
     22          1           0        0.967715    1.095978   -0.672014
     23          6           0        3.608529    1.442968   -0.216117
     24         17           0        5.158210   -1.108130    0.620174
     25          1           0        3.188976   -3.114008    0.640978
     26          1           0        0.764387   -3.100566    0.148616
     27          9           0        4.182428    1.783585    0.951632
     28          9           0        4.602933    1.362681   -1.121050
     29          9           0        2.844269    2.477596   -0.582946
     30          8           0       -1.519042    1.618517   -0.783434
     31          8           0       -2.657593    0.871102    1.000121
     32          6           0       -2.433658    1.686888    0.092282
     33          6           0       -3.353699    2.917115   -0.031677
     34          6           0       -4.453224    2.978331    1.019933
     35          1           0       -3.773093    2.904700   -1.043349
     36          1           0       -2.716098    3.805863    0.010628
     37          1           0       -5.099310    2.099470    0.959398
     38          1           0       -5.074347    3.871960    0.901030
     39          1           0       -4.025634    2.981693    2.023968
 ---------------------------------------------------------------------

 SCF Done:  E(RDSDPBEP86) =  -1654.64775243     A.U. after   13 cycles
 E2(DSDPBEP86) =    -0.2221827623D+01 E(DSDPBEP86) =    -0.16568695800484D+04

 The electronic state is 1-A.
 Alpha  occ. eigenvalues -- -103.48494 -25.61808 -25.61538 -25.61516 -19.91829
 Alpha  occ. eigenvalues --  -19.86346 -19.80311 -19.80071 -14.97914 -10.99437
 Alpha  occ. eigenvalues --  -10.86062 -10.79802 -10.77710 -10.77165 -10.76366
 Alpha  occ. eigenvalues --  -10.75420 -10.74556 -10.73592 -10.73023 -10.71504
 Alpha  occ. eigenvalues --  -10.70822 -10.68776 -10.68541 -10.05991  -7.63667
 Alpha  occ. eigenvalues --   -7.63203  -7.63197  -1.48263  -1.38868  -1.38558
 Alpha  occ. eigenvalues --   -1.21351  -1.11359  -1.10778  -1.02886  -1.00774
 Alpha  occ. eigenvalues --   -0.98911  -0.91867  -0.87067  -0.86059  -0.81155
 Alpha  occ. eigenvalues --   -0.81049  -0.77194  -0.74446  -0.69316  -0.67245
 Alpha  occ. eigenvalues --   -0.66183  -0.64648  -0.64412  -0.63667  -0.61919
 Alpha  occ. eigenvalues --   -0.57477  -0.55806  -0.52853  -0.52776  -0.52453
 Alpha  occ. eigenvalues --   -0.50913  -0.50205  -0.49372  -0.48960  -0.48368
 Alpha  occ. eigenvalues --   -0.48047  -0.46519  -0.46325  -0.45546  -0.44269
 Alpha  occ. eigenvalues --   -0.43715  -0.43359  -0.43037  -0.42418  -0.41267
 Alpha  occ. eigenvalues --   -0.40026  -0.39110  -0.38645  -0.37181  -0.36492
 Alpha  occ. eigenvalues --   -0.36073  -0.35912  -0.35400  -0.34679  -0.33031
 Alpha  occ. eigenvalues --   -0.32776  -0.32503  -0.31806  -0.30403  -0.28677
 Alpha  occ. eigenvalues --   -0.27995  -0.27199  -0.23779  -0.20903  -0.20716
 Alpha  occ. eigenvalues --   -0.20077  -0.17318
 Alpha virt. eigenvalues --    0.08383   0.09224   0.09465   0.10160   0.10494
 Alpha virt. eigenvalues --    0.11189   0.11611   0.11852   0.12089   0.12336
 Alpha virt. eigenvalues --    0.12964   0.13492   0.13682   0.13737   0.13971

 Mulliken charges:
               1
     1  C    0.913721
     2  N   -0.365630
     3  C    0.329129
     4  O   -0.882420
     5  O   -0.511039
     6  C   -0.273386
     7  C   -0.553079
     8  C   -0.994034
     9  C   -0.989758
    10  C    0.193776
    11  C    0.722878
    12  C   -0.849078
    13  C   -0.441044
    14  H    0.608926
    15  H    0.257972
    16  H    0.552519
    17  H    0.183712
    18  H    0.481640
    19  H    0.225582
    20  H    0.267409
    21  H    0.300620
    22  H    0.387492
    23  C    1.183883
    24  Cl  -0.515063
    25  H    0.390142
    26  H    0.511424
    27  F   -0.422818
    28  F   -0.421931
    29  F   -0.364790
    30  O   -0.929370
    31  O   -1.014736
    32  C    1.000729
    33  C   -0.299476
    34  C   -1.063264
    35  H    0.123636
    36  H    0.347348
    37  H    0.473139
    38  H    0.209079
    39  H    0.226164
 Sum of Mulliken charges =  -1.00000

 Dipole moment (field-independent basis, Debye):
    X=              1.7760    Y=             -1.7127    Z=             -0.7652  Tot=              2.5832
 Quadrupole moment (field-independent basis, Debye-Ang):
   XX=           -192.4092   YY=           -162.9175   ZZ=           -153.3374
   XY=             -0.3880   XZ=              3.6748   YZ=              1.9391

 Summary of Natural Population Analysis:

                                       Natural Population
                Natural  -----------------------------------------------
    Atom  No    Charge         Core      Valence    Rydberg      Total
 -----------------------------------------------------------------------
      C    1    0.21208      1.99911     3.75984    0.02897     5.78792
      N    2   -0.69981      1.99930     5.67158    0.02892     7.69981
      C    3    1.03450      1.99947     2.93063    0.03540     4.96550
      O    4   -0.72715      1.99975     6.69566    0.03174     8.72715
      O    5   -0.58465      1.99972     6.55817    0.02675     8.58465
      C    6    0.00749      1.99930     3.96867    0.02454     5.99251
      C    7   -0.37783      1.99949     4.35813    0.02021     6.37783
      C    8   -0.54860      1.99954     4.53435    0.01472     6.54860
      C    9   -0.18924      1.99911     4.16895    0.02118     6.18924
      C   10   -0.23066      1.99890     4.17490    0.05687     6.23066
      C   11    0.06661      1.99854     3.89084    0.04402     5.93339
      C   12   -0.24840      1.99921     4.20108    0.04811     6.24840
      C   13   -0.21798      1.99916     4.19742    0.02140     6.21798
      H   14    0.47894      0.00000     0.51351    0.00755     0.52106
      H   15    0.18928      0.00000     0.80789    0.00283     0.81072
      H   16    0.14987      0.00000     0.84712    0.00302     0.85013
      H   17    0.16807      0.00000     0.82853    0.00340     0.83193
      H   18    0.20769      0.00000     0.78809    0.00423     0.79231
      H   19    0.17294      0.00000     0.82451    0.00255     0.82706
      H   20    0.18201      0.00000     0.81575    0.00224     0.81799
      H   21    0.19091      0.00000     0.80676    0.00233     0.80909
      H   22    0.25632      0.00000     0.74002    0.00366     0.74368
      C   23    1.10447      1.99922     2.84518    0.05113     4.89553
     Cl   24   -0.03957      9.99969     7.01697    0.02291    17.03957
      H   25    0.20637      0.00000     0.79054    0.00309     0.79363
      H   26    0.24230      0.00000     0.75461    0.00309     0.75770
      F   27   -0.36713      1.99992     7.36004    0.00716     9.36713
      F   28   -0.36978      1.99992     7.36275    0.00711     9.36978
      F   29   -0.35842      1.99992     7.35150    0.00700     9.35842
      O   30   -0.86503      1.99976     6.84025    0.02502     8.86503
      O   31   -0.81723      1.99978     6.78832    0.02913     8.81723
      C   32    0.88072      1.99963     3.07388    0.04577     5.11928
      C   33   -0.47097      1.99941     4.44944    0.02213     6.47097
      C   34   -0.54666      1.99955     4.53113    0.01598     6.54666
      H   35    0.18482      0.00000     0.81214    0.00304     0.81518
      H   36    0.18749      0.00000     0.80939    0.00312     0.81251
      H   37    0.18420      0.00000     0.81278    0.00302     0.81580
      H   38    0.16135      0.00000     0.83570    0.00295     0.83865
      H   39    0.19127      0.00000     0.80590    0.00283     0.80873
 =======================================================================
   * Total *   -0.99942     53.98740   129.32289    0.68913   183.99942

 Normal termination of Gaussian 16 at Wed Apr 28 17:36:06 2021.
