 Gaussian 16, Revision C.01,
 Gaussian 16:  ES64L-G16RevC.01  3-Jul-2019

 ----------------------------------------------------------------------
 # DSDPBEP86/AUG-cc-PVTZ SCF=Tight INT(grid=ultrafine) MaxDisk=1400000M
 B
 ----------------------------------------------------------------------

 -----------------------------
 29CA_c2.DSDPBEP86_AUG-cc-PVTZ
 -----------------------------
 Symbolic Z-matrix:
 Charge =  0 Multiplicity = 1

                         Standard orientation:
 ---------------------------------------------------------------------
 Center     Atomic      Atomic             Coordinates (Angstroms)
 Number     Number       Type             X           Y           Z
 ---------------------------------------------------------------------
      1          6           0       -0.150096   -0.213062   -0.005253
      2          7           0       -1.456082    0.293532   -0.007320
      3          6           0       -2.626455   -0.421169   -0.002809
      4          8           0       -2.732429   -1.620436    0.000342
      5          8           0       -3.660204    0.436890   -0.002417
      6          6           0       -4.962906   -0.167073    0.002423
      7          6           0       -5.986140    0.947948    0.000976
      8          6           0       -7.405107    0.385799    0.006499
      9          6           0        0.894088    0.714418   -0.003745
     10          6           0        2.218303    0.302175   -0.001371
     11          6           0        2.514594   -1.060875   -0.000427
     12          6           0        1.479793   -1.984027   -0.002556
     13          6           0        0.152462   -1.576208   -0.005056
     14          1           0       -1.564709    1.296943   -0.007332
     15          1           0       -5.054638   -0.800478    0.888130
     16          1           0       -5.058409   -0.806548   -0.878498
     17          1           0       -5.827850    1.575245   -0.880435
     18          1           0       -5.823458    1.581302    0.877238
     19          1           0       -7.589619   -0.234964   -0.873607
     20          1           0       -8.143794    1.188180    0.006175
     21          1           0       -7.584768   -0.229809    0.891230
     22          1           0        0.674022    1.775712   -0.004296
     23          6           0        3.310792    1.341541    0.000777
     24         17           0        4.153554   -1.636925    0.004684
     25          1           0        1.716901   -3.040800   -0.002057
     26          1           0       -0.639699   -2.309387   -0.006450
     27          9           0        2.805420    2.584968   -0.002248
     28          9           0        4.092899    1.243689    1.081912
     29          9           0        4.099821    1.241251   -1.075068
 ---------------------------------------------------------------------

 SCF Done:  E(RDSDPBEP86) =  -1387.61829011     A.U. after   13 cycles
 E2(DSDPBEP86) =    -0.1705657599D+01 E(DSDPBEP86) =    -0.13893239477040D+04

 The electronic state is 1-A.
 Alpha  occ. eigenvalues -- -103.57877 -25.71619 -25.71037 -25.71035 -20.06468
 Alpha  occ. eigenvalues --  -19.99806 -15.14225 -11.09289 -11.00103 -10.90550
 Alpha  occ. eigenvalues --  -10.90194 -10.88465 -10.87307 -10.85788 -10.85228
 Alpha  occ. eigenvalues --  -10.84493 -10.82829 -10.81871 -10.15375  -7.73062
 Alpha  occ. eigenvalues --   -7.72575  -7.72561  -1.58004  -1.48603  -1.48281
 Alpha  occ. eigenvalues --   -1.35633  -1.25356  -1.17042  -1.09982  -1.02960
 Alpha  occ. eigenvalues --   -0.98419  -0.97637  -0.92862  -0.87780  -0.86368
 Alpha  occ. eigenvalues --   -0.80442  -0.78794  -0.76263  -0.74340  -0.74087
 Alpha  occ. eigenvalues --   -0.73818  -0.70429  -0.69719  -0.64362  -0.63927
 Alpha  occ. eigenvalues --   -0.62729  -0.62457  -0.62077  -0.60541  -0.59474
 Alpha  occ. eigenvalues --   -0.58141  -0.57912  -0.57387  -0.56075  -0.56006
 Alpha  occ. eigenvalues --   -0.55509  -0.53133  -0.53001  -0.50513  -0.50326
 Alpha  occ. eigenvalues --   -0.49307  -0.48226  -0.47546  -0.46340  -0.44769
 Alpha  occ. eigenvalues --   -0.44425  -0.41949  -0.41476  -0.40649  -0.40370
 Alpha  occ. eigenvalues --   -0.34829  -0.29768
 Alpha virt. eigenvalues --    0.01056   0.01785   0.02366   0.02613   0.02778
 Alpha virt. eigenvalues --    0.03170   0.03587   0.03686   0.04955   0.05049
 Alpha virt. eigenvalues --    0.05165   0.05378   0.05899   0.06781   0.06967

 Mulliken charges:
               1
     1  C    0.758591
     2  N   -0.194074
     3  C    0.313785
     4  O   -0.779687
     5  O   -0.412582
     6  C   -0.189428
     7  C   -0.467338
     8  C   -0.962474
     9  C   -0.893468
    10  C    0.323626
    11  C    0.775280
    12  C   -0.881150
    13  C   -0.333075
    14  H   -0.009536
    15  H    0.330157
    16  H    0.330428
    17  H    0.212169
    18  H    0.212017
    19  H    0.278173
    20  H    0.287053
    21  H    0.278185
    22  H    0.276555
    23  C    1.198202
    24  Cl  -0.466729
    25  H    0.376740
    26  H    0.819029
    27  F   -0.369436
    28  F   -0.405457
    29  F   -0.405558
 Sum of Mulliken charges =  -0.00000

 Dipole moment (field-independent basis, Debye):
    X=             -4.8984    Y=              1.0712    Z=             -0.0058  Tot=              5.0142
 Quadrupole moment (field-independent basis, Debye-Ang):
   XX=           -108.5358   YY=           -110.7319   ZZ=           -112.2244
   XY=             -9.0893   XZ=             -0.0147   YZ=              0.0074

 Normal termination of Gaussian 16 at Tue Sep 29 04:04:55 2020.
