 Gaussian 16, Revision C.01,

 ----------------------------------------------------------------------
 # M062X/6-311+G* SCF=Tight INT(grid=ultrafine) OPT IOP(2/17=4) Symmetr
 y=None EmpiricalDispersion=GD3 MaxDisk=10000MB
 ----------------------------------------------------------------------

 ------------------------------
 29CA_c2.M062X_6-311pGd_opt_GD3
 ------------------------------
 Symbolic Z-matrix:
 Charge =  0 Multiplicity = 1

 SCF Done:  E(RM062X) =  -1390.67129933     A.U. after   17 cycles
 SCF Done:  E(RM062X) =  -1390.67129936     A.U. after    9 cycles
 Optimization completed.
    -- Stationary point found.
 Normal termination of Gaussian 16 at Sun Sep 27 20:43:58 2020.
 Gaussian 16:  ES64L-G16RevC.01  3-Jul-2019

 ----------------------------------------------------------------------
 # M062X/6-311+G* SCF=Tight INT(grid=ultrafine) EmpiricalDispersion=GD3
  Freq=Noraman MaxDisk=10000MB geom=check guess=read IOP(2/17=4)
 ----------------------------------------------------------------------

 ------------------------------
 29CA_c2.M062X_6-311pGd_opt_GD3
 ------------------------------
 Structure from the checkpoint file:  "29CA_c2.M062X_6-311pGd_opt_GD3.chk"
 Charge =  0 Multiplicity = 1

                         Standard orientation:
 ---------------------------------------------------------------------
 Center     Atomic      Atomic             Coordinates (Angstroms)
 Number     Number       Type             X           Y           Z
 ---------------------------------------------------------------------
      1          6           0       -0.150096   -0.213062   -0.005253
      2          7           0       -1.456082    0.293532   -0.007320
      3          6           0       -2.626455   -0.421169   -0.002809
      4          8           0       -2.732429   -1.620436    0.000342
      5          8           0       -3.660204    0.436890   -0.002417
      6          6           0       -4.962906   -0.167073    0.002423
      7          6           0       -5.986140    0.947948    0.000976
      8          6           0       -7.405107    0.385799    0.006499
      9          6           0        0.894088    0.714418   -0.003745
     10          6           0        2.218303    0.302175   -0.001371
     11          6           0        2.514594   -1.060875   -0.000427
     12          6           0        1.479793   -1.984027   -0.002556
     13          6           0        0.152462   -1.576208   -0.005056
     14          1           0       -1.564709    1.296943   -0.007332
     15          1           0       -5.054638   -0.800478    0.888130
     16          1           0       -5.058409   -0.806548   -0.878498
     17          1           0       -5.827850    1.575245   -0.880435
     18          1           0       -5.823458    1.581302    0.877238
     19          1           0       -7.589619   -0.234964   -0.873607
     20          1           0       -8.143794    1.188180    0.006175
     21          1           0       -7.584768   -0.229809    0.891230
     22          1           0        0.674022    1.775712   -0.004296
     23          6           0        3.310792    1.341541    0.000777
     24         17           0        4.153554   -1.636925    0.004684
     25          1           0        1.716901   -3.040800   -0.002057
     26          1           0       -0.639699   -2.309387   -0.006450
     27          9           0        2.805420    2.584968   -0.002248
     28          9           0        4.092899    1.243689    1.081912
     29          9           0        4.099821    1.241251   -1.075068
 ---------------------------------------------------------------------

 SCF Done:  E(RM062X) =  -1390.67128470     A.U. after    7 cycles

 The electronic state is 1-A.
 Alpha  occ. eigenvalues -- -102.68681 -25.28517 -25.27915 -25.27913 -19.68382
 Alpha  occ. eigenvalues --  -19.62326 -14.81243 -10.81211 -10.71931 -10.62812
 Alpha  occ. eigenvalues --  -10.62507 -10.60759 -10.59725 -10.58292 -10.57599
 Alpha  occ. eigenvalues --  -10.56990 -10.55149 -10.54125  -9.82956  -7.55480
 Alpha  occ. eigenvalues --   -7.54781  -7.54772  -1.47708  -1.38302  -1.37953
 Alpha  occ. eigenvalues --   -1.26453  -1.16532  -1.08803  -1.02184  -0.95798
 Alpha  occ. eigenvalues --   -0.91476  -0.90638  -0.86336  -0.82091  -0.80458
 Alpha  occ. eigenvalues --   -0.75362  -0.73612  -0.71559  -0.69943  -0.69866
 Alpha  occ. eigenvalues --   -0.69135  -0.66281  -0.65598  -0.60425  -0.60419
 Alpha  occ. eigenvalues --   -0.58740  -0.58141  -0.58086  -0.56717  -0.55728
 Alpha  occ. eigenvalues --   -0.55009  -0.53934  -0.53587  -0.52527  -0.52114
 Alpha  occ. eigenvalues --   -0.51738  -0.50291  -0.49778  -0.48092  -0.47244
 Alpha  occ. eigenvalues --   -0.46309  -0.45098  -0.44690  -0.44099  -0.42031
 Alpha  occ. eigenvalues --   -0.41803  -0.39234  -0.39019  -0.38325  -0.37927
 Alpha  occ. eigenvalues --   -0.34565  -0.29281
 Alpha virt. eigenvalues --   -0.01817  -0.00914  -0.00247   0.01257   0.01772
 Alpha virt. eigenvalues --    0.02719   0.02845   0.03178   0.03308   0.04626
 Alpha virt. eigenvalues --    0.04887   0.05003   0.06293   0.06302   0.06351

 Mulliken charges:
               1
     1  C   -0.342892
     2  N   -0.489922
     3  C   -0.022420
     4  O   -0.290512
     5  O   -0.059813
     6  C   -0.348507
     7  C   -0.130395
     8  C   -1.029753
     9  C   -0.709072
    10  C   -1.113217
    11  C    0.722565
    12  C   -0.179933
    13  C    0.073255
    14  H    0.405144
    15  H    0.267741
    16  H    0.267777
    17  H    0.259191
    18  H    0.259158
    19  H    0.259662
    20  H    0.274416
    21  H    0.259633
    22  H    0.269312
    23  C    0.535372
    24  Cl   0.471917
    25  H    0.279396
    26  H    0.309069
    27  F   -0.141997
    28  F   -0.027544
    29  F   -0.027632
 Sum of Mulliken charges =  -0.00000

 Dipole moment (field-independent basis, Debye):
    X=             -4.9304    Y=              0.8753    Z=             -0.0054  Tot=              5.0075
 Quadrupole moment (field-independent basis, Debye-Ang):
   XX=           -108.2527   YY=           -110.7902   ZZ=           -113.2555
   XY=             -9.3673   XZ=             -0.0146   YZ=              0.0075

  Exact polarizability:     227.833      -9.512     147.185       0.068      -0.041      95.961
 Approx polarizability:     224.238      -7.580     196.535       0.117      -0.070     126.879

                      1                      2                      3
                      A                      A                      A
 Frequencies --      0.7365                24.1080                48.1533
 Red. masses --      2.7142                 5.1759                11.5232
 Frc consts  --      0.0000                 0.0018                 0.0157
 IR Inten    --      1.7073                 0.1973                 0.1294

                      4                      5                      6
                      A                      A                      A
 Frequencies --     58.5751                67.9789                73.1139
 Red. masses --      5.1000                 2.7004                 5.3583
 Frc consts  --      0.0103                 0.0074                 0.0169
 IR Inten    --      0.1407                 3.5659                 0.8473

                      7                      8                      9
                      A                      A                      A
 Frequencies --    114.2302               138.3698               142.1212
 Red. masses --      5.1148                 7.8042                 5.9555
 Frc consts  --      0.0393                 0.0880                 0.0709
 IR Inten    --      0.3132                 2.3122                 0.5665

                     10                     11                     12
                      A                      A                      A
 Frequencies --    168.5332               177.6150               214.8966
 Red. masses --      9.4987                 3.8572                 7.6802
 Frc consts  --      0.1590                 0.0717                 0.2090
 IR Inten    --      1.5654                 2.8132                 0.4666

                     13                     14                     15
                      A                      A                      A
 Frequencies --    230.7067               251.5899               308.8443
 Red. masses --      1.1532                 5.8430                15.5792
 Frc consts  --      0.0362                 0.2179                 0.8755
 IR Inten    --      0.0006                 0.7148                 1.0880

                     16                     17                     18
                      A                      A                      A
 Frequencies --    313.7208               349.9022               356.8444
 Red. masses --      6.7316                 4.9755                 6.2073
 Frc consts  --      0.3904                 0.3589                 0.4657
 IR Inten    --      0.0002                13.8545                 0.1693

                     19                     20                     21
                      A                      A                      A
 Frequencies --    366.1065               428.5576               465.1651
 Red. masses --      7.5217                 6.6325                 3.8019
 Frc consts  --      0.5940                 0.7177                 0.4847
 IR Inten    --      7.5671                 9.8675                 0.4349

                     22                     23                     24
                      A                      A                      A
 Frequencies --    468.3330               531.8850               539.5333
 Red. masses --      6.7217                 7.4852                 1.7358
 Frc consts  --      0.8686                 1.2476                 0.2977
 IR Inten    --      0.6585                20.5954                27.5790

                     25                     26                     27
                      A                      A                      A
 Frequencies --    544.3944               602.8287               649.4617
 Red. masses --      2.2151                 9.6222                 5.0891
 Frc consts  --      0.3868                 2.0602                 1.2647
 IR Inten    --     62.8739                 2.5616                 1.9228

                     28                     29                     30
                      A                      A                      A
 Frequencies --    674.1666               713.3701               740.7441
 Red. masses --      8.7570                 6.9919                 4.2554
 Frc consts  --      2.3450                 2.0964                 1.3757
 IR Inten    --     16.6968                 7.9447                 4.5101

                     31                     32                     33
                      A                      A                      A
 Frequencies --    761.9823               764.8597               789.6093
 Red. masses --      1.1162                10.9077                 8.0068
 Frc consts  --      0.3819                 3.7596                 2.9413
 IR Inten    --      4.8456                 6.6998                15.0511

                     34                     35                     36
                      A                      A                      A
 Frequencies --    813.5218               862.9264               902.1105
 Red. masses --      8.7770                 1.3707                 1.1542
 Frc consts  --      3.4224                 0.6014                 0.5534
 IR Inten    --      2.4302                32.5622                 2.1221

                     37                     38                     39
                      A                      A                      A
 Frequencies --    904.9580               917.3389               943.1259
 Red. masses --      1.5532                 2.7474                 2.2975
 Frc consts  --      0.7495                 1.3622                 1.2041
 IR Inten    --     29.1821                11.4685                20.2380

                     40                     41                     42
                      A                      A                      A
 Frequencies --   1000.0517              1029.0081              1053.8517
 Red. masses --      1.3207                 7.1743                 5.5919
 Frc consts  --      0.7782                 4.4758                 3.6591
 IR Inten    --      0.0189                22.3345                37.7948

                     43                     44                     45
                      A                      A                      A
 Frequencies --   1076.1814              1131.8635              1157.4314
 Red. masses --      2.5400                 6.1411                 2.6982
 Frc consts  --      1.7332                 4.6354                 2.1297
 IR Inten    --      9.6474                67.1359               116.0997

                     46                     47                     48
                      A                      A                      A
 Frequencies --   1169.1968              1179.2210              1196.1375
 Red. masses --      2.4509                 1.5434                 1.6630
 Frc consts  --      1.9740                 1.2645                 1.4019
 IR Inten    --      9.0081                26.6564                 0.8945

                     49                     50                     51
                      A                      A                      A
 Frequencies --   1217.1991              1229.2155              1257.9502
 Red. masses --     13.0053                 4.1775                 2.3590
 Frc consts  --     11.3526                 3.7190                 2.1994
 IR Inten    --    275.0929               324.7251               313.2710

                     52                     53                     54
                      A                      A                      A
 Frequencies --   1282.4214              1292.7779              1302.4809
 Red. masses --      4.4802                 1.1849                 1.6802
 Frc consts  --      4.3412                 1.1667                 1.6794
 IR Inten    --    705.5870                 0.8131                27.7529

                     55                     56                     57
                      A                      A                      A
 Frequencies --   1337.7689              1339.2886              1348.7770
 Red. masses --      3.5875                 1.0684                 1.4483
 Frc consts  --      3.7827                 1.1291                 1.5523
 IR Inten    --     66.7423                 0.3934                19.0153

                     58                     59                     60
                      A                      A                      A
 Frequencies --   1370.9970              1432.2705              1441.3580
 Red. masses --      3.6378                 1.2813                 1.5993
 Frc consts  --      4.0287                 1.5486                 1.9576
 IR Inten    --    240.5523                 3.7865                28.7924

                     61                     62                     63
                      A                      A                      A
 Frequencies --   1466.0643              1510.2656              1523.5754
 Red. masses --      3.1817                 1.0622                 1.0367
 Frc consts  --      4.0292                 1.4274                 1.4178
 IR Inten    --      8.1308                 2.0276                10.4398

                     64                     65                     66
                      A                      A                      A
 Frequencies --   1525.1151              1537.6903              1545.0456
 Red. masses --      1.0825                 1.1047                 3.0773
 Frc consts  --      1.4835                 1.5390                 4.3282
 IR Inten    --      1.6732                61.4109               164.8582

                     67                     68                     69
                      A                      A                      A
 Frequencies --   1592.8586              1660.2243              1692.0390
 Red. masses --      2.4060                 5.6536                 6.3413
 Frc consts  --      3.5967                 9.1815                10.6967
 IR Inten    --    870.3113                14.5612                38.4161

                     70                     71                     72
                      A                      A                      A
 Frequencies --   1847.3835              3071.3911              3079.4706
 Red. masses --     10.5981                 1.0380                 1.0597
 Frc consts  --     21.3105                 5.7693                 5.9207
 IR Inten    --    308.3280                18.4238                 4.7355

                     73                     74                     75
                      A                      A                      A
 Frequencies --   3089.8831              3111.9580              3133.3290
 Red. masses --      1.0575                 1.1044                 1.1063
 Frc consts  --      5.9483                 6.3017                 6.3996
 IR Inten    --     36.3996                 0.0082                 0.2462

                     76                     77                     78
                      A                      A                      A
 Frequencies --   3147.8436              3152.2726              3226.2043
 Red. masses --      1.1066                 1.1014                 1.0910
 Frc consts  --      6.4607                 6.4486                 6.6907
 IR Inten    --     57.8086                24.0150                 3.4576

                     79                     80                     81
                      A                      A                      A
 Frequencies --   3236.8911              3283.1556              3655.3547
 Red. masses --      1.0921                 1.0931                 1.0772
 Frc consts  --      6.7417                 6.9420                 8.4802
 IR Inten    --      0.3776                 8.9584                47.0803

 - Thermochemistry -
 -------------------
 Temperature   298.150 Kelvin.  Pressure   1.00000 Atm.
 Atom     1 has atomic number  6 and mass  12.00000

 Molecular mass:   281.04304 amu.
 Principal axes and moments of inertia in atomic units:
                           1         2         3
     Eigenvalues --  1915.89144********************
           X            0.99996  -0.00927  -0.00006
           Y            0.00927   0.99996   0.00003
           Z            0.00006  -0.00003   1.00000
 This molecule is an asymmetric top.
 Rotational symmetry number  1.
 Warning -- assumption of classical behavior for rotation
           may cause significant error
 Rotational temperatures (Kelvin)      0.04521     0.00627     0.00563
 Rotational constants (GHZ):           0.94199     0.13063     0.11733
 Zero-point vibrational energy     564389.1 (Joules/Mol)
                                  134.89222 (Kcal/Mol)
 Warning -- explicit consideration of  26 degrees of freedom as
           vibrations may cause significant error
 Vibrational temperatures:      1.06    34.69    69.28    84.28    97.81
          (Kelvin)            105.19   164.35   199.08   204.48   242.48
                              255.55   309.19   331.94   361.98   444.36
                              451.37   503.43   513.42   526.75   616.60
                              669.27   673.83   765.26   776.27   783.26
                              867.34   934.43   969.98  1026.38  1065.77
                             1096.32  1100.46  1136.07  1170.48  1241.56
                             1297.94  1302.03  1319.85  1356.95  1438.85
                             1480.51  1516.26  1548.39  1628.50  1665.29
                             1682.21  1696.64  1720.98  1751.28  1768.57
                             1809.91  1845.12  1860.02  1873.98  1924.75
                             1926.94  1940.59  1972.56  2060.72  2073.79
                             2109.34  2172.94  2192.09  2194.30  2212.39
                             2222.98  2291.77  2388.69  2434.47  2657.97
                             4419.05  4430.67  4445.65  4477.41  4508.16
                             4529.04  4535.42  4641.79  4657.16  4723.73
                             5259.24

 Zero-point correction=                           0.214964 (Hartree/Particle)
 Thermal correction to Energy=                    0.232498
 Thermal correction to Enthalpy=                  0.233443
 Thermal correction to Gibbs Free Energy=         0.163168
 Sum of electronic and zero-point Energies=          -1390.456320
 Sum of electronic and thermal Energies=             -1390.438786
 Sum of electronic and thermal Enthalpies=           -1390.437842
 Sum of electronic and thermal Free Energies=        -1390.508117

                     E (Thermal)             CV                S
                      KCal/Mol        Cal/Mol-Kelvin    Cal/Mol-Kelvin
 Total                  145.895             62.582            147.905
 Electronic               0.000              0.000              0.000
 Translational            0.889              2.981             42.798
 Rotational               0.889              2.981             34.364
 Vibrational            144.118             56.621             70.743
 Vibration     1          0.592              1.987             13.194
 Vibration     2          0.593              1.985              6.263
 Vibration     3          0.595              1.978              4.892
 Vibration     4          0.596              1.974              4.505
 Vibration     5          0.598              1.969              4.211
 Vibration     6          0.599              1.967              4.068
 Vibration     7          0.607              1.938              3.196
 Vibration     8          0.614              1.915              2.826
 Vibration     9          0.616              1.911              2.775
 Vibration    10          0.625              1.881              2.452
 Vibration    11          0.628              1.870              2.353
 Vibration    12          0.645              1.818              2.002
 Vibration    13          0.652              1.794              1.873
 Vibration    14          0.664              1.760              1.719
 Vibration    15          0.698              1.657              1.369
 Vibration    16          0.702              1.647              1.343
 Vibration    17          0.727              1.575              1.167
 Vibration    18          0.732              1.561              1.136
 Vibration    19          0.739              1.542              1.096
 Vibration    20          0.790              1.408              0.863
 Vibration    21          0.823              1.327              0.751
 Vibration    22          0.826              1.320              0.742
 Vibration    23          0.887              1.179              0.583
 Vibration    24          0.895              1.163              0.566
 Vibration    25          0.900              1.152              0.556
 Vibration    26          0.961              1.026              0.445

                           ! Non-Optimized Parameters !
 Normal termination of Gaussian 16 at Mon Sep 28 00:28:55 2020.
