 Gaussian 09, Revision E.01,

 ----------------------------------------------------------------------
 # M062X/6-311+G* SCF=Tight INT(grid=ultrafine) OPT IOP(2/17=4) Empiric
 alDispersion=GD3 SCRF=(SMD,Solvent=h2o) maxdisk=2147483648
 ----------------------------------------------------------------------

 ---------------------------------
 29CA.M062X_6-311pGd_opt_water_GD3
 ---------------------------------
 Symbolic Z-matrix:
 Charge =  0 Multiplicity = 1

 SCF Done:  E(RM062X) =  -1390.68089651     A.U. after   15 cycles
 Optimization completed.
    -- Stationary point found.
 Normal termination of Gaussian 09 at Thu Nov 14 17:02:40 2019.
 Gaussian 09:  ES64L-G09RevE.01 30-Nov-2015

 ----------------------------------------------------------------------
 # M062X/6-311+G* SCF=Tight INT(grid=ultrafine) SCRF=(SMD,Solvent=h2o)
 EmpiricalDispersion=GD3 Freq=Noraman maxdisk=2147483648 geom=check gue
 ss=read IOP(2/17=4)
 ----------------------------------------------------------------------

 ---------------------------------
 29CA.M062X_6-311pGd_opt_water_GD3
 ---------------------------------
 Structure from the checkpoint file:  "29CA.M062X_6-311pGd_opt_water_GD3.chk"
 Charge =  0 Multiplicity = 1

                         Standard orientation:
 ---------------------------------------------------------------------
 Center     Atomic      Atomic             Coordinates (Angstroms)
 Number     Number       Type             X           Y           Z
 ---------------------------------------------------------------------
      1          6           0        0.084856   -1.029843   -0.054784
      2          7           0        1.482329   -1.108796   -0.102182
      3          6           0        2.376536   -0.088076    0.012368
      4          8           0        2.104401    1.087745    0.157561
      5          8           0        3.624935   -0.566388   -0.057687
      6          6           0        4.685055    0.407689    0.050318
      7          6           0        5.999218   -0.332330   -0.051237
      8          6           0        7.167530    0.642326    0.050421
      9          6           0       -0.622370    0.172880   -0.064284
     10          6           0       -2.013256    0.158490   -0.022543
     11          6           0       -2.705690   -1.048906    0.021071
     12          6           0       -2.004184   -2.246621    0.022874
     13          6           0       -0.620641   -2.235705   -0.013947
     14          1           0        1.879412   -2.037723   -0.175246
     15          1           0        4.588250    0.923033    1.008102
     16          1           0        4.572303    1.135801   -0.755618
     17          1           0        6.035447   -0.869946   -1.002639
     18          1           0        6.054719   -1.076100    0.748294
     19          1           0        7.133366    1.382922   -0.752572
     20          1           0        8.120662    0.115928   -0.020702
     21          1           0        7.151463    1.178755    1.002494
     22          1           0       -0.100391    1.115386   -0.106420
     23          6           0       -2.749858    1.470211   -0.029752
     24         17           0       -4.447871   -1.102967    0.074000
     25          1           0       -2.539211   -3.187545    0.055475
     26          1           0       -0.078496   -3.175239   -0.010167
     27          9           0       -1.918968    2.518300   -0.078692
     28          9           0       -3.573700    1.584431   -1.085284
     29          9           0       -3.507096    1.632291    1.068893
 ---------------------------------------------------------------------

 SCF Done:  E(RM062X) =  -1390.68089651     A.U. after    2 cycles

 The electronic state is 1-A.
 Alpha  occ. eigenvalues -- -102.68962 -25.28881 -25.28516 -25.28508 -19.67590
 Alpha  occ. eigenvalues --  -19.62061 -14.79981 -10.81517 -10.71630 -10.62526
 Alpha  occ. eigenvalues --  -10.61608 -10.59226 -10.59005 -10.56923 -10.56870
 Alpha  occ. eigenvalues --  -10.56583 -10.53073 -10.51907  -9.83241  -7.55756
 Alpha  occ. eigenvalues --   -7.55076  -7.55064  -1.48132  -1.38728  -1.38392
 Alpha  occ. eigenvalues --   -1.25629  -1.15716  -1.07718  -1.01854  -0.95436
 Alpha  occ. eigenvalues --   -0.90831  -0.89329  -0.85340  -0.82270  -0.79066
 Alpha  occ. eigenvalues --   -0.75019  -0.73056  -0.70689  -0.70458  -0.68979
 Alpha  occ. eigenvalues --   -0.67361  -0.66758  -0.63923  -0.60048  -0.59264
 Alpha  occ. eigenvalues --   -0.58684  -0.58624  -0.58147  -0.56403  -0.54712
 Alpha  occ. eigenvalues --   -0.54445  -0.53776  -0.53415  -0.52340  -0.51989
 Alpha  occ. eigenvalues --   -0.50928  -0.49484  -0.49324  -0.46947  -0.46349
 Alpha  occ. eigenvalues --   -0.45266  -0.44423  -0.43484  -0.42718  -0.40124
 Alpha  occ. eigenvalues --   -0.40110  -0.39168  -0.38549  -0.37922  -0.37738
 Alpha  occ. eigenvalues --   -0.33903  -0.28807
 Alpha virt. eigenvalues --   -0.01449  -0.00250   0.01133   0.02000   0.02682
 Alpha virt. eigenvalues --    0.03089   0.03815   0.03957   0.04244   0.05184
 Alpha virt. eigenvalues --    0.05308   0.05738   0.06385   0.06917   0.07270

 Mulliken charges:
               1
     1  C   -0.824282
     2  N   -0.487668
     3  C    0.077966
     4  O   -0.421312
     5  O   -0.084169
     6  C   -0.308007
     7  C   -0.172998
     8  C   -1.066877
     9  C    0.118027
    10  C   -0.901375
    11  C    1.031683
    12  C   -0.513361
    13  C   -0.621394
    14  H    0.481820
    15  H    0.289089
    16  H    0.290182
    17  H    0.270965
    18  H    0.270858
    19  H    0.272183
    20  H    0.283936
    21  H    0.272390
    22  H    0.333925
    23  C    0.623057
    24  Cl   0.401938
    25  H    0.324640
    26  H    0.308080
    27  F   -0.137375
    28  F   -0.055296
    29  F   -0.056626
 Sum of Mulliken charges =   0.00000

 Dipole moment (field-independent basis, Debye):
    X=              6.3631    Y=             -6.5267    Z=             -0.3926  Tot=              9.1237
 Quadrupole moment (field-independent basis, Debye-Ang):
   XX=           -105.2433   YY=           -103.7798   ZZ=           -113.4600
   XY=              2.7108   XZ=             -0.4435   YZ=             -0.4613

  Exact polarizability: 280.775  10.863 217.772  -1.904   1.262 139.250
 Approx polarizability: 227.300   4.666 193.941  -1.989   1.059 127.764

                      1                      2                      3
                      A                      A                      A
 Frequencies --      6.8227                22.4352                53.8879
 Red. masses --      4.4945                 5.5119                 7.4963
 Frc consts  --      0.0001                 0.0016                 0.0128
 IR Inten    --      4.7263                 0.8080                 0.1232

                      4                      5                      6
                      A                      A                      A
 Frequencies --     56.7195                72.7160                82.9555
 Red. masses --      6.0630                 3.5262                 2.6894
 Frc consts  --      0.0115                 0.0110                 0.0109
 IR Inten    --      0.3047                 1.7896                 5.4333

                      7                      8                      9
                      A                      A                      A
 Frequencies --    110.8019               129.5160               146.0082
 Red. masses --      5.2366                 6.6081                 5.8790
 Frc consts  --      0.0379                 0.0653                 0.0738
 IR Inten    --      0.3414                 1.4815                 1.2690

                     10                     11                     12
                      A                      A                      A
 Frequencies --    174.2910               178.4367               229.1503
 Red. masses --      4.2052                10.3803                 6.4518
 Frc consts  --      0.0753                 0.1947                 0.1996
 IR Inten    --      6.4936                 2.5123                 0.0518

                     13                     14                     15
                      A                      A                      A
 Frequencies --    236.8778               252.2839               308.8007
 Red. masses --      1.1490                 6.2236                15.9659
 Frc consts  --      0.0380                 0.2334                 0.8970
 IR Inten    --      0.1132                 3.6999                 3.7713

                     16                     17                     18
                      A                      A                      A
 Frequencies --    319.3689               351.3193               354.9224
 Red. masses --      6.7473                 5.7864                 5.0266
 Frc consts  --      0.4055                 0.4208                 0.3731
 IR Inten    --      0.3637                 1.1497                26.6837

                     19                     20                     21
                      A                      A                      A
 Frequencies --    382.7239               417.8706               460.5085
 Red. masses --      8.8026                 5.8206                 5.4122
 Frc consts  --      0.7597                 0.5988                 0.6762
 IR Inten    --      5.6239                19.9060                 4.5987

                     22                     23                     24
                      A                      A                      A
 Frequencies --    461.6653               525.9553               541.4107
 Red. masses --      4.5046                 7.1401                 7.3218
 Frc consts  --      0.5657                 1.1637                 1.2645
 IR Inten    --      5.7914                34.1550                20.1153

                     25                     26                     27
                      A                      A                      A
 Frequencies --    567.8786               598.4797               649.5637
 Red. masses --      1.1214                 9.4073                 4.8537
 Frc consts  --      0.2131                 1.9852                 1.2066
 IR Inten    --    182.4601                 4.2986                 6.5957

                     28                     29                     30
                      A                      A                      A
 Frequencies --    671.9824               706.6271               742.1349
 Red. masses --      8.8013                 7.5047                 4.3544
 Frc consts  --      2.3416                 2.2078                 1.4130
 IR Inten    --     41.7024                15.2442                 3.2519

                     31                     32                     33
                      A                      A                      A
 Frequencies --    765.1205               771.4672               786.4594
 Red. masses --      1.1368                 9.5503                 7.0279
 Frc consts  --      0.3921                 3.3489                 2.5611
 IR Inten    --     20.0961                 8.0987                29.0486

                     34                     35                     36
                      A                      A                      A
 Frequencies --    788.9741               852.5788               907.7181
 Red. masses --      8.7476                 1.4152                 1.1444
 Frc consts  --      3.2082                 0.6061                 0.5556
 IR Inten    --      9.9864                70.3089                 4.5766

                     37                     38                     39
                      A                      A                      A
 Frequencies --    915.4447               927.0587               950.6730
 Red. masses --      1.5310                 1.8873                 3.8650
 Frc consts  --      0.7559                 0.9556                 2.0581
 IR Inten    --     58.5161                 3.0298                57.3956

                     40                     41                     42
                      A                      A                      A
 Frequencies --    993.0597              1013.9871              1048.1948
 Red. masses --      1.3425                 7.6457                 5.9897
 Frc consts  --      0.7800                 4.6316                 3.8774
 IR Inten    --      0.3212                37.3028                62.6991

                     43                     44                     45
                      A                      A                      A
 Frequencies --   1074.7818              1110.7695              1148.4858
 Red. masses --      2.4169                 6.2743                 2.7550
 Frc consts  --      1.6449                 4.5610                 2.1410
 IR Inten    --      2.9037               275.2237               138.7074

                     46                     47                     48
                      A                      A                      A
 Frequencies --   1150.0622              1164.4267              1175.2881
 Red. masses --      9.2817                 2.3691                 4.2952
 Frc consts  --      7.2330                 1.8926                 3.4956
 IR Inten    --    431.6689                23.2602               171.5061

                     49                     50                     51
                      A                      A                      A
 Frequencies --   1191.6076              1211.0163              1255.9960
 Red. masses --      1.6566                 1.6961                 2.8742
 Frc consts  --      1.3859                 1.4655                 2.6715
 IR Inten    --      1.4322               491.1886               929.3193

                     52                     53                     54
                      A                      A                      A
 Frequencies --   1271.0873              1288.8202              1299.7588
 Red. masses --      2.9111                 1.1837                 2.3291
 Frc consts  --      2.7712                 1.1585                 2.3182
 IR Inten    --     50.4806                 2.7682               240.8720

                     55                     56                     57
                      A                      A                      A
 Frequencies --   1318.5944              1336.3701              1345.7094
 Red. masses --      2.3358                 1.0658                 1.4854
 Frc consts  --      2.3928                 1.1214                 1.5849
 IR Inten    --    185.2358                 1.6691                40.7200

                     58                     59                     60
                      A                      A                      A
 Frequencies --   1371.8929              1418.8967              1442.9386
 Red. masses --      3.8687                 1.2742                 1.5248
 Frc consts  --      4.2900                 1.5114                 1.8705
 IR Inten    --    191.4166                 9.0904                28.9465

                     61                     62                     63
                      A                      A                      A
 Frequencies --   1476.8909              1484.3155              1501.0088
 Red. masses --      4.5148                 1.0670                 1.0384
 Frc consts  --      5.8021                 1.3851                 1.3784
 IR Inten    --    498.4015                 0.4179                13.7555

                     64                     65                     66
                      A                      A                      A
 Frequencies --   1508.9047              1522.8956              1534.8897
 Red. masses --      1.0924                 1.1012                 2.5581
 Frc consts  --      1.4654                 1.5047                 3.5508
 IR Inten    --      5.6037                19.5163               142.2239

                     67                     68                     69
                      A                      A                      A
 Frequencies --   1588.6454              1663.7662              1681.4952
 Red. masses --      2.1822                 6.0182                 5.4467
 Frc consts  --      3.2449                 9.8152                 9.0735
 IR Inten    --    897.7113               142.6204                73.6758

                     70                     71                     72
                      A                      A                      A
 Frequencies --   1738.5289              3070.6363              3080.5723
 Red. masses --      9.9345                 1.0370                 1.0602
 Frc consts  --     17.6913                 5.7606                 5.9281
 IR Inten    --    824.1954                31.0182                25.7183

                     73                     74                     75
                      A                      A                      A
 Frequencies --   3098.1976              3116.4199              3139.0590
 Red. masses --      1.0568                 1.1043                 1.1048
 Frc consts  --      5.9769                 6.3189                 6.4143
 IR Inten    --     49.4052                 1.2705                34.5339

                     76                     77                     78
                      A                      A                      A
 Frequencies --   3148.8631              3155.7801              3219.7078
 Red. masses --      1.1024                 1.1103                 1.0922
 Frc consts  --      6.4403                 6.5147                 6.6709
 IR Inten    --     41.7085                81.9276                 1.9739

                     79                     80                     81
                      A                      A                      A
 Frequencies --   3246.1041              3294.5618              3621.5865
 Red. masses --      1.0951                 1.0918                 1.0783
 Frc consts  --      6.7984                 6.9820                 8.3326
 IR Inten    --      0.3656                24.5731               169.1569

 - Thermochemistry -
 -------------------
 Temperature   298.150 Kelvin.  Pressure   1.00000 Atm.
 Atom     1 has atomic number  6 and mass  12.00000

 Molecular mass:   281.04304 amu.
 Principal axes and moments of inertia in atomic units:
                           1         2         3
     Eigenvalues --  2023.76828********************
           X            0.99995   0.01032   0.00026
           Y           -0.01032   0.99995   0.00135
           Z           -0.00025  -0.00135   1.00000
 This molecule is an asymmetric top.
 Rotational symmetry number  1.
 Warning -- assumption of classical behavior for rotation
           may cause significant error
 Rotational temperatures (Kelvin)      0.04280     0.00683     0.00604
 Rotational constants (GHZ):           0.89177     0.14241     0.12586
 Zero-point vibrational energy     562269.9 (Joules/Mol)
                                  134.38572 (Kcal/Mol)
 Warning -- explicit consideration of  26 degrees of freedom as
           vibrations may cause significant error
 Vibrational temperatures:      9.82    32.28    77.53    81.61   104.62
          (Kelvin)            119.35   159.42   186.34   210.07   250.77
                              256.73   329.70   340.81   362.98   444.29
                              459.50   505.47   510.65   550.65   601.22
                              662.57   664.23   756.73   778.97   817.05
                              861.08   934.58   966.83  1016.68  1067.77
                             1100.84  1109.97  1131.54  1135.16  1226.67
                             1306.00  1317.12  1333.83  1367.80  1428.79
                             1458.90  1508.12  1546.37  1598.15  1652.41
                             1654.68  1675.35  1690.98  1714.46  1742.38
                             1807.10  1828.81  1854.32  1870.06  1897.16
                             1922.74  1936.17  1973.85  2041.47  2076.06
                             2124.91  2135.60  2159.61  2170.97  2191.10
                             2208.36  2285.70  2393.79  2419.29  2501.35
                             4417.96  4432.25  4457.61  4483.83  4516.40
                             4530.51  4540.46  4632.44  4670.41  4740.13
                             5210.65

 Zero-point correction=                           0.214157 (Hartree/Particle)
 Thermal correction to Energy=                    0.231625
 Thermal correction to Enthalpy=                  0.232569
 Thermal correction to Gibbs Free Energy=         0.164683
 Sum of electronic and zero-point Energies=          -1390.466739
 Sum of electronic and thermal Energies=             -1390.449271
 Sum of electronic and thermal Enthalpies=           -1390.448327
 Sum of electronic and thermal Free Energies=        -1390.516214

                     E (Thermal)             CV                S
                      KCal/Mol        Cal/Mol-Kelvin    Cal/Mol-Kelvin
 Total                  145.347             62.702            142.879
 Electronic               0.000              0.000              0.000
 Translational            0.889              2.981             42.798
 Rotational               0.889              2.981             34.263
 Vibrational            143.569             56.740             65.818
 Vibration     1          0.593              1.987              8.771
 Vibration     2          0.593              1.985              6.406
 Vibration     3          0.596              1.976              4.669
 Vibration     4          0.596              1.975              4.568
 Vibration     5          0.599              1.967              4.078
 Vibration     6          0.600              1.961              3.820
 Vibration     7          0.607              1.941              3.255
 Vibration     8          0.612              1.924              2.953
 Vibration     9          0.617              1.907              2.724
 Vibration    10          0.627              1.874              2.389
 Vibration    11          0.629              1.869              2.345
 Vibration    12          0.652              1.797              1.886
 Vibration    13          0.656              1.784              1.826
 Vibration    14          0.664              1.759              1.715
 Vibration    15          0.698              1.657              1.369
 Vibration    16          0.705              1.637              1.313
 Vibration    17          0.728              1.573              1.160
 Vibration    18          0.731              1.565              1.144
 Vibration    19          0.752              1.507              1.028
 Vibration    20          0.781              1.431              0.899
 Vibration    21          0.818              1.338              0.765
 Vibration    22          0.819              1.335              0.761
 Vibration    23          0.881              1.193              0.596
 Vibration    24          0.896              1.159              0.562
 Vibration    25          0.924              1.101              0.508
 Vibration    26          0.956              1.035              0.452

 Optimization completed.
    -- Stationary point found.
 Normal termination of Gaussian 09 at Thu Nov 14 18:08:50 2019.
