 Gaussian 16, Revision C.01,
 Gaussian 16:  ES64L-G16RevC.01  3-Jul-2019

 ---------------------------------------------------------------------
 # DSDPBEP86/AUG-cc-PVTZ SCF=Tight INT(grid=ultrafine) MaxDisk=60000MB
 ---------------------------------------------------------------------

 --------------------------
 29CA.DSDPBEP86_AUG-cc-PVTZ
 --------------------------
 Symbolic Z-matrix:
 Charge =  0 Multiplicity = 1

                         Standard orientation:
 ---------------------------------------------------------------------
 Center     Atomic      Atomic             Coordinates (Angstroms)
 Number     Number       Type             X           Y           Z
 ---------------------------------------------------------------------
      1          6           0        0.081672   -1.039998    0.000240
      2          7           0        1.480199   -1.115770    0.000443
      3          6           0        2.373606   -0.074637    0.000150
      4          8           0        2.104673    1.098250   -0.000149
      5          8           0        3.621759   -0.572620    0.000261
      6          6           0        4.673746    0.405064   -0.000142
      7          6           0        5.991907   -0.338386    0.000053
      8          6           0        7.167030    0.635555   -0.000432
      9          6           0       -0.621505    0.166159    0.000203
     10          6           0       -2.012500    0.158090   -0.000003
     11          6           0       -2.714224   -1.045823   -0.000136
     12          6           0       -2.014649   -2.244863   -0.000079
     13          6           0       -0.630566   -2.241469    0.000103
     14          1           0        1.893404   -2.036423    0.000570
     15          1           0        4.565565    1.039524    0.882896
     16          1           0        4.565472    1.038890   -0.883626
     17          1           0        6.034525   -0.987733   -0.878616
     18          1           0        6.034655   -0.987026    0.879236
     19          1           0        7.148450    1.279456   -0.883043
     20          1           0        8.118036    0.101605   -0.000292
     21          1           0        7.148593    1.280171    0.881662
     22          1           0       -0.088629    1.104500    0.000309
     23          6           0       -2.744721    1.478390    0.000081
     24         17           0       -4.450734   -1.098216   -0.000337
     25          1           0       -2.560774   -3.179810   -0.000183
     26          1           0       -0.097041   -3.186671    0.000132
     27          9           0       -1.898356    2.514392    0.000150
     28          9           0       -3.526963    1.612875   -1.078921
     29          9           0       -3.527059    1.612741    1.079045
 ---------------------------------------------------------------------

 SCF Done:  E(RDSDPBEP86) =  -1387.61744865     A.U. after   14 cycles
 E2(DSDPBEP86) =    -0.1705832408D+01 E(DSDPBEP86) =    -0.13893232810612D+04

 The electronic state is 1-A.
 Alpha  occ. eigenvalues -- -103.57819 -25.70844 -25.70450 -25.70449 -20.06408
 Alpha  occ. eigenvalues --  -19.99716 -15.14196 -11.08651 -11.00019 -10.90522
 Alpha  occ. eigenvalues --  -10.90185 -10.88388 -10.86961 -10.85571 -10.85450
 Alpha  occ. eigenvalues --  -10.84762 -10.82792 -10.81818 -10.15318  -7.73006
 Alpha  occ. eigenvalues --   -7.72518  -7.72504  -1.57375  -1.47943  -1.47666
 Alpha  occ. eigenvalues --   -1.35561  -1.25293  -1.17001  -1.09901  -1.02868
 Alpha  occ. eigenvalues --   -0.98372  -0.97605  -0.92566  -0.87812  -0.86131
 Alpha  occ. eigenvalues --   -0.80353  -0.78715  -0.75527  -0.73968  -0.73480
 Alpha  occ. eigenvalues --   -0.73248  -0.71563  -0.68828  -0.64563  -0.63859
 Alpha  occ. eigenvalues --   -0.62264  -0.62045  -0.61802  -0.60314  -0.58586
 Alpha  occ. eigenvalues --   -0.57984  -0.57606  -0.57394  -0.55876  -0.55441
 Alpha  occ. eigenvalues --   -0.55338  -0.52983  -0.52949  -0.50442  -0.50295
 Alpha  occ. eigenvalues --   -0.49229  -0.48126  -0.47508  -0.46285  -0.44716
 Alpha  occ. eigenvalues --   -0.44365  -0.41873  -0.41297  -0.40656  -0.40314
 Alpha  occ. eigenvalues --   -0.34842  -0.29724
 Alpha virt. eigenvalues --    0.00745   0.01508   0.02496   0.02541   0.02814
 Alpha virt. eigenvalues --    0.02957   0.03760   0.03768   0.04701   0.05099
 Alpha virt. eigenvalues --    0.05479   0.05523   0.05947   0.06834   0.07013

 Mulliken charges:
               1
     1  C    0.696243
     2  N   -0.234479
     3  C    0.321243
     4  O   -0.761812
     5  O   -0.429435
     6  C   -0.197232
     7  C   -0.467429
     8  C   -0.958106
     9  C   -0.829623
    10  C    0.416816
    11  C    0.666574
    12  C   -0.776648
    13  C   -0.398772
    14  H    0.002990
    15  H    0.333347
    16  H    0.333377
    17  H    0.213899
    18  H    0.213903
    19  H    0.278629
    20  H    0.285072
    21  H    0.278636
    22  H    0.528535
    23  C    1.226974
    24  Cl  -0.461080
    25  H    0.403592
    26  H    0.494858
    27  F   -0.363317
    28  F   -0.408389
    29  F   -0.408367
 Sum of Mulliken charges =  -0.00000

 Dipole moment (field-independent basis, Debye):
    X=              5.0746    Y=             -4.2647    Z=              0.0003  Tot=              6.6287
 Quadrupole moment (field-independent basis, Debye-Ang):
   XX=           -103.9307   YY=           -106.6465   ZZ=           -112.2693
   XY=              2.1046   XZ=             -0.0002   YZ=              0.0004

 Normal termination of Gaussian 16 at Thu Sep 10 15:35:32 2020.
