 Gaussian 16, Revision C.01,

 ----------------------------------------------------------------------
 # M062X/6-311+G* SCF=Tight INT(grid=ultrafine) OPT=CalcAll IOP(2/17=4)
  Symmetry=None EmpiricalDispersion=GD3 SCRF=(SMD,Solvent=n-Pentadecane
 )
 ----------------------------------------------------------------------

 ---------------------------------------
 29CA.M062X_6-311pGd_opt_Pentadecane_GD3
 ---------------------------------------
 Symbolic Z-matrix:
 Charge =  0 Multiplicity = 1

 SCF Done:  E(RM062X) =  -1390.68236298     A.U. after   16 cycles
 SCF Done:  E(RM062X) =  -1390.68275058     A.U. after   15 cycles
 SCF Done:  E(RM062X) =  -1390.68277503     A.U. after   12 cycles
 SCF Done:  E(RM062X) =  -1390.68277550     A.U. after   11 cycles
 SCF Done:  E(RM062X) =  -1390.68277551     A.U. after    8 cycles
 Optimization completed.
    -- Stationary point found.
 Normal termination of Gaussian 16 at Sat Sep  5 12:05:56 2020.
 Gaussian 16:  ES64L-G16RevC.01  3-Jul-2019

 ----------------------------------------------------------------------
 # M062X/6-311+G* SCF=Tight INT(grid=ultrafine) EmpiricalDispersion=GD3
  Symmetry=None SCRF=(SMD,Solvent=n-Pentadecane) Freq=Noraman geom=chec
 k guess=read IOP(2/17=4)
 ----------------------------------------------------------------------

 ---------------------------------------
 29CA.M062X_6-311pGd_opt_Pentadecane_GD3
 ---------------------------------------
 Structure from the checkpoint file:  "29CA.M062X_6-311pGd_opt_Pentadecane_GD3.chk"
 Charge =  0 Multiplicity = 1

                          Input orientation:
 ---------------------------------------------------------------------
 Center     Atomic      Atomic             Coordinates (Angstroms)
 Number     Number       Type             X           Y           Z
 ---------------------------------------------------------------------
      1          6           0       -6.185781    1.276028    0.013676
      2          7           0       -4.897633    0.730130    0.023309
      3          6           0       -3.704106    1.401222   -0.034913
      4          8           0       -3.561052    2.596389   -0.101865
      5          8           0       -2.700411    0.512978   -0.005899
      6          6           0       -1.374862    1.069447   -0.059219
      7          6           0       -0.390875   -0.078544   -0.010556
      8          6           0        1.043921    0.436366   -0.064974
      9          6           0       -6.441105    2.648192   -0.028277
     10          6           0       -7.753694    3.109404   -0.031996
     11          6           0       -8.819508    2.212881    0.006068
     12          6           0       -8.566602    0.848634    0.047450
     13          6           0       -7.262502    0.385807    0.050956
     14          1           0       -4.828364   -0.276541    0.073700
     15          1           0       -1.243994    1.748925    0.786384
     16          1           0       -1.273260    1.649105   -0.979881
     17          1           0       -0.585115   -0.751884   -0.850001
     18          1           0       -0.554667   -0.650837    0.906760
     19          1           0        1.231160    0.995308   -0.985436
     20          1           0        1.756921   -0.388843   -0.028402
     21          1           0        1.260816    1.099006    0.776811
     22          1           0       -5.623787    3.351915   -0.057962
     23          6           0       -7.998500    4.596647   -0.076296
     24         17           0      -10.474438    2.752033    0.003484
     25          1           0       -9.394364    0.150875    0.076207
     26          1           0       -7.076255   -0.682881    0.082812
     27          9           0       -6.855497    5.291298   -0.110842
     28          9           0       -8.703646    4.957258   -1.158731
     29          9           0       -8.679572    5.025183    0.996933
 ---------------------------------------------------------------------

 SCF Done:  E(RM062X) =  -1390.68277551     A.U. after    2 cycles

 Alpha  occ. eigenvalues -- -102.68652 -25.28102 -25.27694 -25.27693 -19.67686
 Alpha  occ. eigenvalues --  -19.61735 -14.80502 -10.80846 -10.71330 -10.62551
 Alpha  occ. eigenvalues --  -10.62019 -10.59786 -10.59202 -10.57422 -10.57302
 Alpha  occ. eigenvalues --  -10.56990 -10.54087 -10.52987  -9.82929  -7.55449
 Alpha  occ. eigenvalues --   -7.54757  -7.54747  -1.47401  -1.37972  -1.37650
 Alpha  occ. eigenvalues --   -1.25789  -1.15854  -1.08137  -1.01855  -0.95440
 Alpha  occ. eigenvalues --   -0.90941  -0.89978  -0.85589  -0.82013  -0.79603
 Alpha  occ. eigenvalues --   -0.75021  -0.73186  -0.70444  -0.69684  -0.69121
 Alpha  occ. eigenvalues --   -0.68034  -0.66996  -0.64155  -0.60206  -0.59633
 Alpha  occ. eigenvalues --   -0.58187  -0.57946  -0.57862  -0.56255  -0.54604
 Alpha  occ. eigenvalues --   -0.54184  -0.53637  -0.53617  -0.51973  -0.51492
 Alpha  occ. eigenvalues --   -0.51280  -0.49676  -0.49509  -0.47404  -0.46613
 Alpha  occ. eigenvalues --   -0.45675  -0.44671  -0.43671  -0.43649  -0.40993
 Alpha  occ. eigenvalues --   -0.40818  -0.38865  -0.38522  -0.37964  -0.37465
 Alpha  occ. eigenvalues --   -0.34194  -0.28875
 Alpha virt. eigenvalues --   -0.01609  -0.00370   0.00203   0.01825   0.02187
 Alpha virt. eigenvalues --    0.02771   0.03293   0.03484   0.04435   0.04874
 Alpha virt. eigenvalues --    0.05158   0.05340   0.06600   0.06725   0.06865

 Mulliken charges:
               1
     1  C   -0.812461
     2  N   -0.494604
     3  C   -0.013249
     4  O   -0.303007
     5  O   -0.056839
     6  C   -0.274031
     7  C   -0.156825
     8  C   -1.046776
     9  C    0.169784
    10  C   -0.879612
    11  C    1.033550
    12  C   -0.529356
    13  C   -0.683120
    14  H    0.428169
    15  H    0.275301
    16  H    0.275069
    17  H    0.262391
    18  H    0.262552
    19  H    0.264929
    20  H    0.278130
    21  H    0.264738
    22  H    0.337030
    23  C    0.618363
    24  Cl   0.427300
    25  H    0.296621
    26  H    0.265693
    27  F   -0.127680
    28  F   -0.041169
    29  F   -0.040890
 Sum of Mulliken charges =  -0.00000

 Dipole moment (field-independent basis, Debye):
    X=              3.6600    Y=             -6.6046    Z=              0.2241  Tot=              7.5542
 Quadrupole moment (field-independent basis, Debye-Ang):
   XX=           -145.7629   YY=           -137.6334   ZZ=           -113.4062
   XY=             49.1952   XZ=             -1.5316   YZ=              0.5135

  Exact polarizability:     244.948     -17.711     172.013      -1.070      -2.234     106.982
 Approx polarizability:     225.648      -7.151     195.643      -0.857      -2.492     127.451

                      1                      2                      3
                      A                      A                      A
 Frequencies --     16.6406                22.4410                53.7231
 Red. masses --      3.3963                 5.4208                 9.3305
 Frc consts  --      0.0006                 0.0016                 0.0159
 IR Inten    --      1.6255                 0.0687                 0.1035

                      4                      5                      6
                      A                      A                      A
 Frequencies --     56.3135                72.4134                76.3524
 Red. masses --      5.3724                 2.6643                 4.6497
 Frc consts  --      0.0100                 0.0082                 0.0160
 IR Inten    --      0.2021                 2.5792                 1.7978

                      7                      8                      9
                      A                      A                      A
 Frequencies --    115.4354               129.2371               144.9838
 Red. masses --      5.0308                 6.8641                 5.3715
 Frc consts  --      0.0395                 0.0675                 0.0665
 IR Inten    --      0.1627                 0.7563                 0.8639

                     10                     11                     12
                      A                      A                      A
 Frequencies --    174.9069               176.8903               229.0889
 Red. masses --     12.4070                 4.1077                 6.5293
 Frc consts  --      0.2236                 0.0757                 0.2019
 IR Inten    --      1.3364                 3.4933                 0.1078

                     13                     14                     15
                      A                      A                      A
 Frequencies --    234.2565               251.9420               308.5614
 Red. masses --      1.1581                 6.0799                16.2234
 Frc consts  --      0.0374                 0.2274                 0.9101
 IR Inten    --      0.0025                 2.4573                 2.1782

                     16                     17                     18
                      A                      A                      A
 Frequencies --    320.9463               351.8448               352.2684
 Red. masses --      7.0137                 5.3191                 5.3337
 Frc consts  --      0.4257                 0.3880                 0.3900
 IR Inten    --      0.0030                11.8559                11.8559

                     19                     20                     21
                      A                      A                      A
 Frequencies --    380.1743               419.0225               459.1882
 Red. masses --      8.6438                 5.7897                 6.8812
 Frc consts  --      0.7361                 0.5989                 0.8549
 IR Inten    --      5.0460                11.4700                 1.4221

                     22                     23                     24
                      A                      A                      A
 Frequencies --    464.3238               527.5542               542.2903
 Red. masses --      3.8790                 7.1957                 7.2347
 Frc consts  --      0.4927                 1.1799                 1.2535
 IR Inten    --      4.2379                22.2792                 5.8382

                     25                     26                     27
                      A                      A                      A
 Frequencies --    571.2627               598.9266               648.9700
 Red. masses --      1.1321                 9.6649                 4.5682
 Frc consts  --      0.2177                 2.0427                 1.1336
 IR Inten    --    101.1437                 2.6463                 7.0438

                     28                     29                     30
                      A                      A                      A
 Frequencies --    674.3076               711.0829               746.5009
 Red. masses --      8.8387                 7.5146                 4.9060
 Frc consts  --      2.3679                 2.2387                 1.6108
 IR Inten    --     33.2430                10.7574                 1.0016

                     31                     32                     33
                      A                      A                      A
 Frequencies --    765.3742               775.8777               790.8494
 Red. masses --      1.1216                 9.6402                 7.9150
 Frc consts  --      0.3871                 3.4192                 2.9167
 IR Inten    --      7.8227                 5.6348                19.9129

                     34                     35                     36
                      A                      A                      A
 Frequencies --    792.2524               847.8532               905.3533
 Red. masses --      8.8942                 1.4202                 1.1516
 Frc consts  --      3.2892                 0.6015                 0.5561
 IR Inten    --      3.1836                50.2871                 2.5320

                     37                     38                     39
                      A                      A                      A
 Frequencies --    928.7713               937.8172               954.3333
 Red. masses --      1.8602                 1.4373                 4.0221
 Frc consts  --      0.9454                 0.7448                 2.1582
 IR Inten    --      1.1172                28.8683                48.3131

                     40                     41                     42
                      A                      A                      A
 Frequencies --    982.4350              1026.5591              1051.8337
 Red. masses --      1.3343                 7.2299                 5.7513
 Frc consts  --      0.7588                 4.4890                 3.7489
 IR Inten    --      0.9415                17.1059                41.9660

                     43                     44                     45
                      A                      A                      A
 Frequencies --   1076.4311              1123.4078              1151.6765
 Red. masses --      2.4852                 5.4269                 2.4866
 Frc consts  --      1.6966                 4.0353                 1.9432
 IR Inten    --      4.4402               149.6973                81.1017

                     46                     47                     48
                      A                      A                      A
 Frequencies --   1168.5274              1188.6114              1189.4846
 Red. masses --      2.3956                 2.6633                 5.6319
 Frc consts  --      1.9273                 2.2169                 4.6948
 IR Inten    --      5.0271                92.1301               248.7114

                     49                     50                     51
                      A                      A                      A
 Frequencies --   1195.1402              1223.7251              1262.5346
 Red. masses --      1.6619                 2.7354                 2.9588
 Frc consts  --      1.3986                 2.4135                 2.7788
 IR Inten    --      1.5382               411.2069               454.2087

                     52                     53                     54
                      A                      A                      A
 Frequencies --   1281.0245              1292.5153              1299.9392
 Red. masses --      2.7377                 1.1862                 2.3274
 Frc consts  --      2.6470                 1.1676                 2.3172
 IR Inten    --    425.9879                 1.2829               170.7025

                     55                     56                     57
                      A                      A                      A
 Frequencies --   1320.8215              1338.8413              1347.9089
 Red. masses --      2.6228                 1.0696                 1.4518
 Frc consts  --      2.6959                 1.1297                 1.5541
 IR Inten    --    244.1861                 1.7438                23.3385

                     58                     59                     60
                      A                      A                      A
 Frequencies --   1375.7582              1431.0820              1446.3338
 Red. masses --      3.8520                 1.2761                 1.5222
 Frc consts  --      4.2956                 1.5398                 1.8761
 IR Inten    --    148.4363                 6.3124                34.2377

                     61                     62                     63
                      A                      A                      A
 Frequencies --   1481.0714              1503.3230              1517.8812
 Red. masses --      4.8175                 1.0637                 1.0387
 Frc consts  --      6.2262                 1.4164                 1.4100
 IR Inten    --    375.0203                 0.7297                11.6415

                     64                     65                     66
                      A                      A                      A
 Frequencies --   1521.2838              1533.7366              1536.7720
 Red. masses --      1.0846                 1.4523                 1.6332
 Frc consts  --      1.4789                 2.0129                 2.2725
 IR Inten    --      3.2558                 8.4867                90.2441

                     67                     68                     69
                      A                      A                      A
 Frequencies --   1593.6394              1665.7928              1686.9998
 Red. masses --      2.3472                 5.4125                 6.0644
 Frc consts  --      3.5122                 8.8489                10.1687
 IR Inten    --    773.7989               139.1541                16.1134

                     70                     71                     72
                      A                      A                      A
 Frequencies --   1835.4006              3070.4757              3078.8030
 Red. masses --     10.3662                 1.0379                 1.0600
 Frc consts  --     20.5746                 5.7652                 5.9201
 IR Inten    --    384.1557                21.4772                11.5231

                     73                     74                     75
                      A                      A                      A
 Frequencies --   3091.8407              3112.1399              3134.7616
 Red. masses --      1.0575                 1.1042                 1.1056
 Frc consts  --      5.9561                 6.3014                 6.4013
 IR Inten    --     36.5198                 0.2884                 4.6730

                     76                     77                     78
                      A                      A                      A
 Frequencies --   3148.5249              3149.7420              3212.7315
 Red. masses --      1.1078                 1.1019                 1.0906
 Frc consts  --      6.4701                 6.4411                 6.6324
 IR Inten    --     64.7743                30.4784                 5.5644

                     79                     80                     81
                      A                      A                      A
 Frequencies --   3242.4331              3289.4719              3645.2874
 Red. masses --      1.0946                 1.0913                 1.0776
 Frc consts  --      6.7805                 6.9572                 8.4369
 IR Inten    --      0.0101                22.0052                75.0289

 - Thermochemistry -
 -------------------
 Temperature   298.150 Kelvin.  Pressure   1.00000 Atm.
 Atom     1 has atomic number  6 and mass  12.00000

 Molecular mass:   281.04304 amu.
 Principal axes and moments of inertia in atomic units:
                           1         2         3
     Eigenvalues --  2022.76377********************
           X            0.93700   0.34910   0.01300
           Y           -0.34934   0.93640   0.03338
           Z           -0.00052  -0.03582   0.99936
 This molecule is an asymmetric top.
 Rotational symmetry number  1.
 Warning -- assumption of classical behavior for rotation
           may cause significant error
 Rotational temperatures (Kelvin)      0.04282     0.00684     0.00604
 Rotational constants (GHZ):           0.89222     0.14254     0.12590
 Zero-point vibrational energy     564380.4 (Joules/Mol)
                                  134.89015 (Kcal/Mol)
 Warning -- explicit consideration of  26 degrees of freedom as
           vibrations may cause significant error
 Vibrational temperatures:     23.94    32.29    77.30    81.02   104.19
          (Kelvin)            109.85   166.09   185.94   208.60   251.65
                              254.51   329.61   337.04   362.49   443.95
                              461.77   506.23   506.84   546.99   602.88
                              660.67   668.06   759.03   780.23   821.92
                              861.72   933.72   970.18  1023.09  1074.05
                             1101.20  1116.31  1137.86  1139.87  1219.87
                             1302.60  1336.29  1349.31  1373.07  1413.50
                             1476.99  1513.35  1548.74  1616.33  1657.01
                             1681.25  1710.15  1711.40  1719.54  1760.67
                             1816.51  1843.11  1859.64  1870.32  1900.37
                             1926.29  1939.34  1979.41  2059.01  2080.95
                             2130.93  2162.95  2183.89  2188.79  2206.70
                             2211.07  2292.89  2396.70  2427.22  2640.73
                             4417.73  4429.71  4448.47  4477.68  4510.22
                             4530.03  4531.78  4622.40  4665.14  4732.82
                             5244.76

 Zero-point correction=                           0.214961 (Hartree/Particle)
 Thermal correction to Energy=                    0.232396
 Thermal correction to Enthalpy=                  0.233340
 Thermal correction to Gibbs Free Energy=         0.166252
 Sum of electronic and zero-point Energies=          -1390.467814
 Sum of electronic and thermal Energies=             -1390.450379
 Sum of electronic and thermal Enthalpies=           -1390.449435
 Sum of electronic and thermal Free Energies=        -1390.516524

                     E (Thermal)             CV                S
                      KCal/Mol        Cal/Mol-Kelvin    Cal/Mol-Kelvin
 Total                  145.831             62.513            141.199
 Electronic               0.000              0.000              0.000
 Translational            0.889              2.981             42.798
 Rotational               0.889              2.981             34.261
 Vibrational            144.053             56.551             64.139
 Vibration     1          0.593              1.986              6.999
 Vibration     2          0.593              1.985              6.406
 Vibration     3          0.596              1.976              4.675
 Vibration     4          0.596              1.975              4.582
 Vibration     5          0.599              1.967              4.087
 Vibration     6          0.599              1.965              3.983
 Vibration     7          0.608              1.937              3.175
 Vibration     8          0.612              1.924              2.957
 Vibration     9          0.616              1.908              2.737
 Vibration    10          0.627              1.873              2.382
 Vibration    11          0.628              1.871              2.361
 Vibration    12          0.652              1.797              1.886
 Vibration    13          0.654              1.788              1.846
 Vibration    14          0.664              1.760              1.717
 Vibration    15          0.698              1.657              1.370
 Vibration    16          0.706              1.633              1.305
 Vibration    17          0.728              1.571              1.158
 Vibration    18          0.729              1.571              1.156
 Vibration    19          0.750              1.512              1.038
 Vibration    20          0.782              1.429              0.895
 Vibration    21          0.817              1.341              0.768
 Vibration    22          0.822              1.329              0.754
 Vibration    23          0.883              1.189              0.593
 Vibration    24          0.897              1.157              0.560
 Vibration    25          0.927              1.093              0.502
 Vibration    26          0.957              1.034              0.452

 Optimization completed.
    -- Stationary point found.
 Normal termination of Gaussian 16 at Sat Sep  5 15:37:09 2020.
