 Gaussian 09, Revision E.01,

 ----------------------------------------------------------------------
 # M062X/6-311+G* SCF=Tight INT(grid=ultrafine) OPT IOP(2/17=4) Empiric
 alDispersion=GD3 SCRF=(SMD,Solvent=n-Pentadecane) maxdisk=2147483648
 ----------------------------------------------------------------------

 ------------------------------------------
 CP19_c2.M062X_6-311pGd_opt_Pentadecane_GD3
 ------------------------------------------
 Symbolic Z-matrix:
 Charge =  0 Multiplicity = 1

 SCF Done:  E(RM062X) =  -1370.81294479     A.U. after   15 cycles
 Optimization completed.
    -- Stationary point found.
 Normal termination of Gaussian 09 at Thu Nov 14 09:30:15 2019.
 Gaussian 09:  ES64L-G09RevE.01 30-Nov-2015

 ----------------------------------------------------------------------
 # M062X/6-311+G* SCF=Tight INT(grid=ultrafine) SCRF=(SMD,Solvent=n-Pen
 tadecane)EmpiricalDispersion=GD3 Freq=Noraman maxdisk=2147483648 geom=
 check guess=read IOP(2/17=4)
 ----------------------------------------------------------------------

 ------------------------------------------
 CP19_c2.M062X_6-311pGd_opt_Pentadecane_GD3
 ------------------------------------------
 Structure from the checkpoint file:  "CP19_c2.M062X_6-311pGd_opt_Pentadecane_GD3.chk"
 Charge =  0 Multiplicity = 1

                         Standard orientation:
 ---------------------------------------------------------------------
 Center     Atomic      Atomic             Coordinates (Angstroms)
 Number     Number       Type             X           Y           Z
 ---------------------------------------------------------------------
      1          6           0       -0.230404    0.153763   -0.020020
      2          7           0       -1.570809    0.531600   -0.023189
      3          6           0       -2.689531   -0.296815   -0.026134
      4          8           0       -2.630012   -1.508787   -0.087631
      5          7           0       -3.867196    0.390114    0.021168
      6          6           0       -5.129856   -0.329358    0.121748
      7          6           0       -6.297441    0.624823   -0.080389
      8          6           0       -7.635092   -0.099146    0.019135
      9          6           0        0.715652    1.189050   -0.015088
     10          6           0        2.066851    0.904118   -0.006150
     11          6           0        2.523067   -0.415170    0.000704
     12          6           0        1.575898   -1.433805   -0.002575
     13          6           0        0.213955   -1.172894   -0.014252
     14          1           0       -1.740788    1.524885   -0.087951
     15          1           0       -3.862438    1.354044    0.323246
     16          1           0       -5.209326   -0.831615    1.092783
     17          1           0       -5.136015   -1.107471   -0.643589
     18          1           0       -6.199510    1.106065   -1.058312
     19          1           0       -6.253502    1.420430    0.672546
     20          1           0       -7.714567   -0.884900   -0.736315
     21          1           0       -8.468525    0.589792   -0.129546
     22          1           0       -7.760989   -0.566169    0.999253
     23          1           0        0.394750    2.224884   -0.013515
     24         17           0        3.180614    2.243548   -0.000863
     25          6           0        3.986947   -0.743531    0.011222
     26          1           0        1.909576   -2.463931    0.001539
     27          1           0       -0.495778   -1.984321   -0.022105
     28          9           0        4.196025   -2.068082    0.018049
     29          9           0        4.629531   -0.258652   -1.063840
     30          9           0        4.615836   -0.249924    1.090526
 ---------------------------------------------------------------------

 SCF Done:  E(RM062X) =  -1370.81294479     A.U. after    2 cycles

 The electronic state is 1-A.
 Alpha  occ. eigenvalues -- -102.68858 -25.27987 -25.27459 -25.27458 -19.59998
 Alpha  occ. eigenvalues --  -14.80073 -14.77822 -10.80617 -10.68787 -10.63163
 Alpha  occ. eigenvalues --  -10.62151 -10.58080 -10.57537 -10.57121 -10.57038
 Alpha  occ. eigenvalues --  -10.55489 -10.54407 -10.52963  -9.83140  -7.55659
 Alpha  occ. eigenvalues --   -7.54971  -7.54957  -1.47129  -1.37769  -1.37352
 Alpha  occ. eigenvalues --   -1.19382  -1.07786  -1.04327  -1.01530  -0.95201
 Alpha  occ. eigenvalues --   -0.90389  -0.88473  -0.85368  -0.81668  -0.78568
 Alpha  occ. eigenvalues --   -0.73949  -0.73345  -0.69669  -0.69590  -0.69422
 Alpha  occ. eigenvalues --   -0.68421  -0.66248  -0.64615  -0.62037  -0.57697
 Alpha  occ. eigenvalues --   -0.57671  -0.56937  -0.55675  -0.55440  -0.54602
 Alpha  occ. eigenvalues --   -0.53605  -0.53263  -0.52940  -0.52013  -0.51312
 Alpha  occ. eigenvalues --   -0.51221  -0.50173  -0.49207  -0.47837  -0.46525
 Alpha  occ. eigenvalues --   -0.45708  -0.43960  -0.43313  -0.42840  -0.41189
 Alpha  occ. eigenvalues --   -0.40491  -0.39105  -0.38868  -0.36071  -0.33402
 Alpha  occ. eigenvalues --   -0.32023  -0.29099
 Alpha virt. eigenvalues --   -0.00738  -0.00384  -0.00333   0.01801   0.02123
 Alpha virt. eigenvalues --    0.02746   0.03160   0.03443   0.03755   0.05052
 Alpha virt. eigenvalues --    0.05189   0.05418   0.05978   0.06345   0.06832

 Mulliken charges:
               1
     1  C   -0.630807
     2  N   -0.383359
     3  C    0.167398
     4  O   -0.363196
     5  N   -0.306547
     6  C   -0.513725
     7  C   -0.129828
     8  C   -1.038139
     9  C   -0.518497
    10  C    1.011035
    11  C   -1.240953
    12  C   -0.187793
    13  C   -0.051681
    14  H    0.375802
    15  H    0.355002
    16  H    0.269894
    17  H    0.271795
    18  H    0.265883
    19  H    0.242830
    20  H    0.266233
    21  H    0.273693
    22  H    0.264387
    23  H    0.274001
    24  Cl   0.433415
    25  C    0.528705
    26  H    0.294665
    27  H    0.315129
    28  F   -0.144427
    29  F   -0.050389
    30  F   -0.050525
 Sum of Mulliken charges =  -0.00000

 Dipole moment (field-independent basis, Debye):
    X=             -7.3078    Y=              3.7439    Z=              0.5391  Tot=              8.2287
 Quadrupole moment (field-independent basis, Debye-Ang):
   XX=           -110.6242   YY=           -108.6342   ZZ=           -115.4599
   XY=            -12.2549   XZ=             -2.2760   YZ=              0.4647

  Exact polarizability: 254.867   6.847 180.230  -0.492  -0.120 110.765
 Approx polarizability: 226.088   5.309 210.644  -0.126   0.422 132.156

                      1                      2                      3
                      A                      A                      A
 Frequencies --     18.3954                24.7705                51.4732
 Red. masses --      5.0505                 3.0065                 4.5307
 Frc consts  --      0.0010                 0.0011                 0.0071
 IR Inten    --      0.6314                 6.9710                 4.1743

                      4                      5                      6
                      A                      A                      A
 Frequencies --     52.7290                57.7289                70.4526
 Red. masses --      8.9000                 4.8188                 2.8611
 Frc consts  --      0.0146                 0.0095                 0.0084
 IR Inten    --      0.7117                 1.0890                 4.5976

                      7                      8                      9
                      A                      A                      A
 Frequencies --    104.3362               138.4148               164.5001
 Red. masses --      4.7562                 6.6227                 8.9837
 Frc consts  --      0.0305                 0.0748                 0.1432
 IR Inten    --      0.1398                 7.1706                 2.6992

                     10                     11                     12
                      A                      A                      A
 Frequencies --    177.5803               191.0195               199.7113
 Red. masses --      6.2120                 3.5497                 6.4375
 Frc consts  --      0.1154                 0.0763                 0.1513
 IR Inten    --      0.3608                 2.2202                 1.1172

                     13                     14                     15
                      A                      A                      A
 Frequencies --    235.8918               242.9687               251.8911
 Red. masses --      4.0714                 1.2366                 5.7500
 Frc consts  --      0.1335                 0.0430                 0.2150
 IR Inten    --      0.3490                 0.0542                 6.3047

                     16                     17                     18
                      A                      A                      A
 Frequencies --    322.9122               326.6415               343.5199
 Red. masses --      4.7431                 1.6104                 5.9089
 Frc consts  --      0.2914                 0.1012                 0.4108
 IR Inten    --     10.5502                74.4983                 0.9797

                     19                     20                     21
                      A                      A                      A
 Frequencies --    347.1821               421.9893               448.4142
 Red. masses --      3.5496                 6.2862                 3.6886
 Frc consts  --      0.2521                 0.6595                 0.4370
 IR Inten    --      8.7562                 6.0295                 4.4868

                     22                     23                     24
                      A                      A                      A
 Frequencies --    456.7671               471.5495               505.8251
 Red. masses --      4.9425                 8.5165                 1.4590
 Frc consts  --      0.6076                 1.1158                 0.2199
 IR Inten    --      9.3724                 7.9233               124.6624

                     25                     26                     27
                      A                      A                      A
 Frequencies --    515.6629               563.7698               598.1034
 Red. masses --      3.4608                12.1725                11.1355
 Frc consts  --      0.5422                 2.2795                 2.3470
 IR Inten    --     64.8544                 5.7565                 3.0581

                     28                     29                     30
                      A                      A                      A
 Frequencies --    630.0875               659.0527               710.4871
 Red. masses --      3.5478                 6.8689                 7.0456
 Frc consts  --      0.8299                 1.7578                 2.0955
 IR Inten    --     13.8562                 6.2594                10.7041

                     31                     32                     33
                      A                      A                      A
 Frequencies --    738.2335               756.3282               777.4302
 Red. masses --      4.1925                 1.1731                 6.9243
 Frc consts  --      1.3462                 0.3954                 2.4657
 IR Inten    --      0.4886                 7.8290                 6.8784

                     34                     35                     36
                      A                      A                      A
 Frequencies --    779.2022               816.4297               865.7496
 Red. masses --      7.3420                 6.7633                 1.3767
 Frc consts  --      2.6264                 2.6561                 0.6080
 IR Inten    --      9.7977                 2.9634                 4.5960

                     37                     38                     39
                      A                      A                      A
 Frequencies --    873.1074               903.2202               914.2871
 Red. masses --      1.6384                 1.1778                 3.0786
 Frc consts  --      0.7359                 0.5661                 1.5163
 IR Inten    --     82.6935                 2.8264                17.0810

                     40                     41                     42
                      A                      A                      A
 Frequencies --    943.6743              1002.2228              1042.5005
 Red. masses --      2.2433                 1.3204                 5.6079
 Frc consts  --      1.1770                 0.7814                 3.5909
 IR Inten    --     12.4406                 0.3401                37.0243

                     43                     44                     45
                      A                      A                      A
 Frequencies --   1050.4028              1080.0245              1140.6015
 Red. masses --      4.1837                 2.5671                 3.0534
 Frc consts  --      2.7197                 1.7643                 2.3405
 IR Inten    --     15.4079                20.3456               297.2076

                     46                     47                     48
                      A                      A                      A
 Frequencies --   1148.4414              1165.7059              1173.6677
 Red. masses --      2.5994                 2.5883                 2.2700
 Frc consts  --      2.0200                 2.0723                 1.8423
 IR Inten    --     25.4794                10.4609                86.9982

                     49                     50                     51
                      A                      A                      A
 Frequencies --   1180.0294              1182.4919              1211.4805
 Red. masses --     12.7656                 1.7694                 2.2704
 Frc consts  --     10.4731                 1.4577                 1.9633
 IR Inten    --    332.3588                 2.6095               128.6283

                     52                     53                     54
                      A                      A                      A
 Frequencies --   1238.8036              1278.5202              1288.2166
 Red. masses --      1.8118                 1.5693                 1.3948
 Frc consts  --      1.6382                 1.5114                 1.3638
 IR Inten    --    448.5031                 3.9231               109.0126

                     55                     56                     57
                      A                      A                      A
 Frequencies --   1323.4398              1330.4362              1344.5966
 Red. masses --      2.2864                 1.2089                 1.3313
 Frc consts  --      2.3595                 1.2607                 1.4181
 IR Inten    --     38.5185                42.0135                23.5887

                     58                     59                     60
                      A                      A                      A
 Frequencies --   1354.6991              1357.4829              1419.3337
 Red. masses --      5.8368                 2.7629                 1.6068
 Frc consts  --      6.3112                 2.9997                 1.9071
 IR Inten    --    443.8006               215.8504                25.2815

                     61                     62                     63
                      A                      A                      A
 Frequencies --   1431.9750              1436.4781              1501.7942
 Red. masses --      1.2949                 2.9125                 1.0628
 Frc consts  --      1.5644                 3.5410                 1.4123
 IR Inten    --      1.6402               227.1478                 7.1014

                     64                     65                     66
                      A                      A                      A
 Frequencies --   1517.7874              1519.0502              1532.0976
 Red. masses --      1.0384                 1.0696                 1.1406
 Frc consts  --      1.4094                 1.4541                 1.5774
 IR Inten    --     13.9160                 3.3838                14.6858

                     67                     68                     69
                      A                      A                      A
 Frequencies --   1542.2202              1564.8507              1578.8730
 Red. masses --      1.8672                 2.4462                 2.7442
 Frc consts  --      2.6166                 3.5293                 4.0306
 IR Inten    --    101.8491               316.5286               964.3804

                     70                     71                     72
                      A                      A                      A
 Frequencies --   1652.3703              1683.4178              1801.0329
 Red. masses --      4.6330                 6.7328                 8.2699
 Frc consts  --      7.4529                11.2416                15.8050
 IR Inten    --    164.9322               188.8032               399.5925

                     73                     74                     75
                      A                      A                      A
 Frequencies --   3055.4895              3060.0905              3071.0648
 Red. masses --      1.0631                 1.0708                 1.0373
 Frc consts  --      5.8476                 5.9078                 5.7638
 IR Inten    --     17.3940                39.1379                35.4313

                     76                     77                     78
                      A                      A                      A
 Frequencies --   3098.7539              3131.0888              3141.3156
 Red. masses --      1.0965                 1.0985                 1.1030
 Frc consts  --      6.2034                 6.3452                 6.4126
 IR Inten    --     15.3108                 2.3293                59.1177

                     79                     80                     81
                      A                      A                      A
 Frequencies --   3146.9997              3216.1429              3245.7306
 Red. masses --      1.1022                 1.0925                 1.0914
 Frc consts  --      6.4316                 6.6581                 6.7740
 IR Inten    --     31.2173                 1.6886                 0.1660

                     82                     83                     84
                      A                      A                      A
 Frequencies --   3299.9648              3635.9342              3645.4422
 Red. masses --      1.0927                 1.0777                 1.0775
 Frc consts  --      7.0111                 8.3939                 8.4369
 IR Inten    --     12.0508                 7.7605                80.2682

 - Thermochemistry -
 -------------------
 Temperature   298.150 Kelvin.  Pressure   1.00000 Atm.
 Atom     1 has atomic number  6 and mass  12.00000

 Molecular mass:   280.05903 amu.
 Principal axes and moments of inertia in atomic units:
                           1         2         3
     Eigenvalues --  1648.58939********************
           X            1.00000  -0.00167  -0.00058
           Y            0.00167   1.00000  -0.00013
           Z            0.00058   0.00013   1.00000
 This molecule is an asymmetric top.
 Rotational symmetry number  1.
 Warning -- assumption of classical behavior for rotation
           may cause significant error
 Rotational temperatures (Kelvin)      0.05254     0.00582     0.00535
 Rotational constants (GHZ):           1.09472     0.12122     0.11151
 Zero-point vibrational energy     595109.6 (Joules/Mol)
                                  142.23460 (Kcal/Mol)
 Warning -- explicit consideration of  27 degrees of freedom as
           vibrations may cause significant error
 Vibrational temperatures:     26.47    35.64    74.06    75.87    83.06
          (Kelvin)            101.37   150.12   199.15   236.68   255.50
                              274.83   287.34   339.40   349.58   362.41
                              464.60   469.96   494.25   499.52   607.15
                              645.17   657.19   678.45   727.77   741.92
                              811.14   860.54   906.55   948.23  1022.23
                             1062.15  1088.19  1118.55  1121.10  1174.66
                             1245.62  1256.21  1299.53  1315.45  1357.74
                             1441.97  1499.92  1511.29  1553.91  1641.07
                             1652.35  1677.19  1688.64  1697.80  1701.34
                             1743.05  1782.36  1839.50  1853.45  1904.13
                             1914.20  1934.57  1949.11  1953.11  2042.10
                             2060.29  2066.77  2160.74  2183.75  2185.57
                             2204.34  2218.91  2251.47  2271.64  2377.39
                             2422.06  2591.28  4396.16  4402.78  4418.57
                             4458.41  4504.93  4519.65  4527.82  4627.31
                             4669.88  4747.91  5231.29  5244.97

 Zero-point correction=                           0.226665 (Hartree/Particle)
 Thermal correction to Energy=                    0.244622
 Thermal correction to Enthalpy=                  0.245566
 Thermal correction to Gibbs Free Energy=         0.177486
 Sum of electronic and zero-point Energies=          -1370.586280
 Sum of electronic and thermal Energies=             -1370.568323
 Sum of electronic and thermal Enthalpies=           -1370.567379
 Sum of electronic and thermal Free Energies=        -1370.635459

                     E (Thermal)             CV                S
                      KCal/Mol        Cal/Mol-Kelvin    Cal/Mol-Kelvin
 Total                  153.503             64.496            143.287
 Electronic               0.000              0.000              0.000
 Translational            0.889              2.981             42.788
 Rotational               0.889              2.981             34.340
 Vibrational            151.725             58.534             66.159
 Vibration     1          0.593              1.986              6.800
 Vibration     2          0.593              1.985              6.210
 Vibration     3          0.596              1.977              4.760
 Vibration     4          0.596              1.977              4.712
 Vibration     5          0.596              1.974              4.533
 Vibration     6          0.598              1.968              4.141
 Vibration     7          0.605              1.946              3.372
 Vibration     8          0.614              1.915              2.826
 Vibration     9          0.623              1.886              2.497
 Vibration    10          0.628              1.870              2.354
 Vibration    11          0.634              1.852              2.218
 Vibration    12          0.638              1.840              2.136
 Vibration    13          0.655              1.786              1.834
 Vibration    14          0.659              1.774              1.781
 Vibration    15          0.664              1.760              1.717
 Vibration    16          0.708              1.630              1.295
 Vibration    17          0.710              1.622              1.277
 Vibration    18          0.722              1.588              1.196
 Vibration    19          0.725              1.581              1.179
 Vibration    20          0.784              1.422              0.885
 Vibration    21          0.807              1.364              0.801
 Vibration    22          0.815              1.346              0.776
 Vibration    23          0.828              1.313              0.733
 Vibration    24          0.861              1.237              0.644
 Vibration    25          0.871              1.215              0.620
 Vibration    26          0.920              1.110              0.516
 Vibration    27          0.956              1.036              0.453

 Normal termination of Gaussian 09 at Thu Nov 14 10:34:17 2019.
