 Gaussian 09, Revision E.01,
 Gaussian 09:  ES64L-G09RevE.01 30-Nov-2015

 -------------------------------------------------------------
 # MP2/Gen 5D SCF=Tight INT(grid=ultrafine) maxdisk=3489660928
 -------------------------------------------------------------

 ----------------------
 CP19_c2.MP2_GTMP2LARGE
 ----------------------
 Symbolic Z-matrix:
 Charge =  0 Multiplicity = 1

                         Standard orientation:
 ---------------------------------------------------------------------
 Center     Atomic      Atomic             Coordinates (Angstroms)
 Number     Number       Type             X           Y           Z
 ---------------------------------------------------------------------
      1          6           0        0.226956    0.173145    0.025176
      2          7           0        1.568767    0.559214    0.050765
      3          6           0        2.686621   -0.266785   -0.040619
      4          8           0        2.629617   -1.464626   -0.208400
      5          7           0        3.870869    0.421091    0.047745
      6          6           0        5.120286   -0.329133    0.079774
      7          6           0        6.309309    0.613527   -0.032888
      8          6           0        7.630715   -0.148292   -0.009693
      9          6           0       -0.725624    1.199428   -0.004054
     10          6           0       -2.076313    0.906188   -0.008264
     11          6           0       -2.520171   -0.416437    0.014904
     12          6           0       -1.564773   -1.426749    0.042472
     13          6           0       -0.204307   -1.156546    0.047429
     14          1           0        1.734042    1.552932   -0.005232
     15          1           0        3.871308    1.311910    0.523395
     16          1           0        5.105682   -1.029994   -0.756376
     17          1           0        5.187965   -0.927713    0.995908
     18          1           0        6.287453    1.333483    0.793921
     19          1           0        6.220006    1.190922   -0.957799
     20          1           0        7.744593   -0.713288    0.918513
     21          1           0        8.480467    0.530806   -0.092222
     22          1           0        7.688753   -0.857001   -0.839086
     23          1           0       -0.415983    2.238630   -0.021652
     24         17           0       -3.196126    2.235351   -0.043290
     25          6           0       -3.983399   -0.757950    0.011185
     26          1           0       -1.893407   -2.458215    0.059513
     27          1           0        0.513418   -1.960947    0.060820
     28          9           0       -4.175882   -2.084778    0.037610
     29          9           0       -4.625160   -0.251855    1.074348
     30          9           0       -4.610108   -0.296699   -1.080700
 ---------------------------------------------------------------------

 SCF Done:  E(RHF) =  -1365.47374914     A.U. after   15 cycles
 E2 =    -0.3314808374D+01 EUMP2 =    -0.13687885575115D+04

 The electronic state is 1-A.
 Alpha  occ. eigenvalues -- -104.85457 -26.33469 -26.32874 -26.32870 -20.53385
 Alpha  occ. eigenvalues --  -15.62003 -15.59639 -11.50550 -11.39870 -11.32774
 Alpha  occ. eigenvalues --  -11.31879 -11.27071 -11.26731 -11.26555 -11.25960
 Alpha  occ. eigenvalues --  -11.24303 -11.24010 -11.22736 -10.57912  -8.04688
 Alpha  occ. eigenvalues --   -8.04513  -8.04509  -1.72513  -1.62915  -1.62489
 Alpha  occ. eigenvalues --   -1.42163  -1.28546  -1.24466  -1.20536  -1.13033
 Alpha  occ. eigenvalues --   -1.07989  -1.06081  -1.02110  -0.96893  -0.93949
 Alpha  occ. eigenvalues --   -0.87893  -0.87008  -0.83301  -0.82220  -0.81625
 Alpha  occ. eigenvalues --   -0.81200  -0.78892  -0.76452  -0.73057  -0.70471
 Alpha  occ. eigenvalues --   -0.70433  -0.67750  -0.66807  -0.66545  -0.65586
 Alpha  occ. eigenvalues --   -0.65264  -0.64854  -0.64097  -0.63170  -0.62602
 Alpha  occ. eigenvalues --   -0.60765  -0.60069  -0.58357  -0.56931  -0.55397
 Alpha  occ. eigenvalues --   -0.55293  -0.53042  -0.52309  -0.50790  -0.49977
 Alpha  occ. eigenvalues --   -0.49331  -0.46704  -0.45895  -0.45756  -0.41756
 Alpha  occ. eigenvalues --   -0.35733  -0.33386
 Alpha virt. eigenvalues --    0.02440   0.03871   0.04962   0.05111   0.05683
 Alpha virt. eigenvalues --    0.06190   0.07458   0.07890   0.08095   0.08365
 Alpha virt. eigenvalues --    0.08960   0.09401   0.09798   0.10300   0.10599

 Mulliken charges:
               1
     1  C    0.018656
     2  N   -0.290888
     3  C    0.483462
     4  O   -0.514642
     5  N   -0.173176
     6  C   -0.284699
     7  C    0.347013
     8  C   -0.494252
     9  C   -0.321633
    10  C    0.261588
    11  C   -0.417793
    12  C   -0.154205
    13  C   -0.262197
    14  H    0.191059
    15  H    0.182696
    16  H    0.102383
    17  H    0.105539
    18  H    0.016067
    19  H    0.064351
    20  H    0.058534
    21  H    0.083975
    22  H    0.063155
    23  H    0.138070
    24  Cl  -0.228188
    25  C    1.446267
    26  H    0.187253
    27  H    0.239394
    28  F   -0.336457
    29  F   -0.255880
    30  F   -0.255452
 Sum of Mulliken charges =  -0.00000

 Dipole moment (field-independent basis, Debye):
    X=              6.3438    Y=              3.1629    Z=              0.8921  Tot=              7.1445
 Quadrupole moment (field-independent basis, Debye-Ang):
   XX=           -111.6985   YY=           -109.4485   ZZ=           -114.6093
   XY=             10.2056   XZ=              3.1343   YZ=              0.2177

 Normal termination of Gaussian 09 at Sat Nov 30 15:50:58 2019.
