 Q-Chem 5.0, Q-Chem, Inc., Pleasanton, CA (2017)
 Q-Chem 5.0.0 for Intel X86 EM64T Linux

User input:
--------------------------------------------------------------
$molecule
  0 1
    C     -6.3330693079    1.2172209296   -0.0297743341
    N     -5.0559207952    0.6543032575    0.0113379765
    C     -3.8339772072    1.3190363472   -0.0600817055
    O     -3.7244688526    2.5151564473   -0.2125443484
    N     -2.7561925247    0.4740653666    0.0290542430
    C     -1.4163577481    1.0457949276    0.0845918885
    C     -0.3660391645   -0.0476636544   -0.0423451047
    C      1.0466459308    0.5259266287    0.0053945548
    C     -6.5672908250    2.5955289002   -0.0025492504
    C     -7.8734078117    3.0617026490   -0.0240442857
    C     -8.9656654608    2.1956141580   -0.0741504389
    C     -8.7160692052    0.8265330952   -0.1023504397
    C     -7.4226979591    0.3396537315   -0.0809325327
    H     -5.0292539606   -0.3522090217   -0.0527039582
    H     -2.8830062570   -0.4144880293    0.4918430712
    H     -1.2754276262    1.6104162594    1.0138572390
    H     -1.3285652911    1.7594203219   -0.7360657637
    H     -0.5253641616   -0.5873365106   -0.9805353888
    H     -0.4930496361   -0.7756340091    0.7678658223
    H      1.2080013083    1.2377257198   -0.8075074831
    H      1.7964855078   -0.2609479653   -0.0876212263
    H      1.2286212290    1.0500458195    0.9466303840
    H     -5.7459671957    3.2940543512    0.0270650490
    Cl    -8.1069986059    4.7833091285    0.0128980000
    C    -10.3810141806    2.7007688394   -0.0985018428
    H     -9.5484446251    0.1357290585   -0.1420335305
    H     -7.2542469943   -0.7320660790   -0.1022631828
    F    -11.2585898342    1.6852318988   -0.1471586998
    F    -10.6842407062    3.4203085286    0.9906365458
    F    -10.6279780395    3.4751489053   -1.1637612580

$end

$rem

    JOBTYPE               sp
    METHOD                CCSD(T)
    BASIS                 6-31+G*
    CC_BACKEND            XM

    MEM_TOTAL             60000
$end
--------------------------------------------------------------

             Standard Nuclear Orientation (Angstroms)
    I     Atom           X                Y                Z
 ----------------------------------------------------------------
    1      C      -0.1855213342    -0.7547166565    -0.0218460322
    2      N      -1.5638901504    -0.9754659542    -0.0541571019
    3      C      -2.5770261493    -0.0240324774     0.0377492115
    4      O      -2.3787809189     1.1588393764     0.2034393963
    5      N      -3.8343658892    -0.5674862113    -0.0476663300
    6      C      -4.9861644921     0.3254172791    -0.0823027946
    7      C      -6.2780446928    -0.4680809297     0.0455249707
    8      C      -7.4997796732     0.4449644579     0.0195283494
    9      C       0.3898639033     0.5196492431    -0.0378825064
   10      C       1.7715921602     0.6397271755    -0.0264852372
   11      C       2.6093049329    -0.4751898595     0.0025662389
   12      C       2.0213914246    -1.7367506671     0.0198440519
   13      C       0.6467502605    -1.8800854241     0.0081718886
   14      H      -1.8440326316    -1.9431737630     0.0000761410
   15      H      -3.9405911632    -1.4533106752    -0.5207557189
   16      H      -4.9873215909     0.9189629284    -1.0042002198
   17      H      -4.8834823780     1.0276474534     0.7464172226
   18      H      -6.2527001668    -1.0422609675     0.9763886529
   19      H      -6.3463334113    -1.1942460267    -0.7733371338
   20      H      -7.4687876462     1.1641458312     0.8413074400
   21      H      -8.4236332630    -0.1275900169     0.1131171921
   22      H      -7.5509997009     1.0098701883    -0.9142804350
   23      H      -0.2280164858     1.4036368111    -0.0511911761
   24      Cl      2.4332207302     2.2464656822    -0.0487847569
   25      C       4.1065958394    -0.3450884278     0.0159752142
   26      H       2.6520028929    -2.6161929606     0.0431728501
   27      H       0.2125786307    -2.8744462328     0.0206480416
   28      F       4.6987743206    -1.5502159902     0.0445058987
   29      F       4.5729893247     0.2879026923    -1.0692461818
   30      F       4.5505509161     0.3281031536     1.0860921425
 ----------------------------------------------------------------

   15   -1365.1638680567      7.59E-09 Convergence criterion met
 Total energy in the final basis set = -1365.1638680567
 CCSD total energy           = -1367.82593485
 CCSD(T) total energy       = -1367.92571640

                    Orbital Energies (a.u.)
 --------------------------------------------------------------

 Alpha MOs
 -- Occupied --
******* -26.351 -26.344 -26.344 -20.550 -15.633 -15.609 -11.518
-11.409 -11.331 -11.326 -11.278 -11.276 -11.275 -11.264 -11.256
-11.245 -11.232 -10.568  -8.038  -8.034  -8.034  -1.731  -1.634
 -1.630  -1.427  -1.290  -1.248  -1.207  -1.133  -1.083  -1.064
 -1.024  -0.973  -0.942  -0.886  -0.864  -0.836  -0.827  -0.818
 -0.814  -0.798  -0.767  -0.733  -0.706  -0.706  -0.679  -0.673
 -0.663  -0.657  -0.657  -0.646  -0.641  -0.633  -0.630  -0.612
 -0.602  -0.585  -0.570  -0.557  -0.553  -0.531  -0.525  -0.508
 -0.501  -0.494  -0.462  -0.459  -0.456  -0.417  -0.356  -0.335

          Ground-State Mulliken Net Atomic Charges

     Atom                 Charge (a.u.)
  ----------------------------------------
      1 C                    -0.101251
      2 N                    -0.820356
      3 C                     0.777009
      4 O                    -0.634057
      5 N                    -0.673501
      6 C                    -0.061871
      7 C                    -0.274753
      8 C                    -0.676411
      9 C                     0.267129
     10 C                     0.868651
     11 C                    -1.850688
     12 C                    -0.202025
     13 C                    -0.797463
     14 H                     0.461662
     15 H                     0.417596
     16 H                     0.203266
     17 H                     0.226365
     18 H                     0.207392
     19 H                     0.180589
     20 H                     0.199025
     21 H                     0.200002
     22 H                     0.197140
     23 H                     0.336893
     24 Cl                    0.292776
     25 C                     1.903123
     26 H                     0.277947
     27 H                     0.231706
     28 F                    -0.441103
     29 F                    -0.359074
     30 F                    -0.355720
  ----------------------------------------
  Sum of atomic charges =     0.000000

                    Cartesian Multipole Moments
 -----------------------------------------------------------------
    Charge (ESU x 10^10)
                 0.0000
    Dipole Moment (Debye)
         X      -6.4595      Y      -5.2548      Z      -0.8892
       Tot       8.3743
    Quadrupole Moments (Debye-Ang)
        XX    -109.6756     XY       6.3630     YY    -106.7036
        XZ       3.2888     YZ       0.4868     ZZ    -115.5762

 Total job time:  98292.45s(wall), 321701.28s(cpu)
        *  Thank you very much for using Q-Chem.  Have a nice day.  *
