 Gaussian 09, Revision E.01,
 Gaussian 09:  ES64L-G09RevE.01 30-Nov-2015

 -------------------------------------------------------------
 # MP2/Gen 5D SCF=Tight INT(grid=ultrafine) maxdisk=3489660928
 -------------------------------------------------------------

 -------------------
 CP19.MP2_GTMP2LARGE
 -------------------
 Symbolic Z-matrix:
 Charge =  0 Multiplicity = 1

                         Standard orientation:
 ---------------------------------------------------------------------
 Center     Atomic      Atomic             Coordinates (Angstroms)
 Number     Number       Type             X           Y           Z
 ---------------------------------------------------------------------
      1          6           0       -0.185521   -0.754717   -0.021846
      2          7           0       -1.563890   -0.975466   -0.054157
      3          6           0       -2.577026   -0.024032    0.037749
      4          8           0       -2.378781    1.158839    0.203439
      5          7           0       -3.834366   -0.567486   -0.047666
      6          6           0       -4.986164    0.325417   -0.082303
      7          6           0       -6.278045   -0.468081    0.045525
      8          6           0       -7.499780    0.444964    0.019528
      9          6           0        0.389864    0.519649   -0.037883
     10          6           0        1.771592    0.639727   -0.026485
     11          6           0        2.609305   -0.475190    0.002566
     12          6           0        2.021391   -1.736751    0.019844
     13          6           0        0.646750   -1.880085    0.008172
     14          1           0       -1.844033   -1.943174    0.000076
     15          1           0       -3.940591   -1.453311   -0.520756
     16          1           0       -4.987322    0.918963   -1.004200
     17          1           0       -4.883482    1.027647    0.746417
     18          1           0       -6.252700   -1.042261    0.976389
     19          1           0       -6.346333   -1.194246   -0.773337
     20          1           0       -7.468788    1.164146    0.841307
     21          1           0       -8.423633   -0.127590    0.113117
     22          1           0       -7.551000    1.009870   -0.914280
     23          1           0       -0.228016    1.403637   -0.051191
     24         17           0        2.433221    2.246466   -0.048785
     25          6           0        4.106596   -0.345088    0.015975
     26          1           0        2.652003   -2.616193    0.043173
     27          1           0        0.212579   -2.874446    0.020648
     28          9           0        4.698774   -1.550216    0.044506
     29          9           0        4.572989    0.287903   -1.069246
     30          9           0        4.550551    0.328103    1.086092
 ---------------------------------------------------------------------

 SCF Done:  E(RHF) =  -1365.47335404     A.U. after   16 cycles
 E2 =    -0.3315151042D+01 EUMP2 =    -0.13687885050783D+04

 The electronic state is 1-A.
 Alpha  occ. eigenvalues -- -104.84723 -26.33454 -26.32803 -26.32796 -20.53343
 Alpha  occ. eigenvalues --  -15.61991 -15.59619 -11.50508 -11.39840 -11.32389
 Alpha  occ. eigenvalues --  -11.31871 -11.27027 -11.26959 -11.26658 -11.25471
 Alpha  occ. eigenvalues --  -11.24752 -11.23980 -11.22700 -10.57183  -8.03959
 Alpha  occ. eigenvalues --   -8.03783  -8.03780  -1.72456  -1.62853  -1.62438
 Alpha  occ. eigenvalues --   -1.42142  -1.28513  -1.24434  -1.20238  -1.12880
 Alpha  occ. eigenvalues --   -1.07888  -1.05994  -1.02006  -0.96976  -0.93859
 Alpha  occ. eigenvalues --   -0.88275  -0.86043  -0.83300  -0.82312  -0.81567
 Alpha  occ. eigenvalues --   -0.81057  -0.79492  -0.76320  -0.72910  -0.70426
 Alpha  occ. eigenvalues --   -0.70410  -0.67693  -0.67062  -0.66084  -0.65538
 Alpha  occ. eigenvalues --   -0.65446  -0.64278  -0.64037  -0.63197  -0.62767
 Alpha  occ. eigenvalues --   -0.60926  -0.59902  -0.58309  -0.56822  -0.55430
 Alpha  occ. eigenvalues --   -0.55147  -0.52828  -0.52272  -0.50690  -0.49933
 Alpha  occ. eigenvalues --   -0.49303  -0.46082  -0.45789  -0.45553  -0.41753
 Alpha  occ. eigenvalues --   -0.35484  -0.33438
 Alpha virt. eigenvalues --    0.02213   0.03727   0.04631   0.05170   0.05679
 Alpha virt. eigenvalues --    0.06379   0.07428   0.07718   0.08296   0.08593
 Alpha virt. eigenvalues --    0.08819   0.09360   0.09639   0.10575   0.10837

 Mulliken charges:
               1
     1  C   -0.330005
     2  N   -0.291502
     3  C    0.474746
     4  O   -0.514365
     5  N   -0.158397
     6  C   -0.270617
     7  C    0.346461
     8  C   -0.494179
     9  C   -0.425267
    10  C    0.465129
    11  C   -0.545790
    12  C   -0.390537
    13  C    0.170443
    14  H    0.198618
    15  H    0.180596
    16  H    0.104722
    17  H    0.102996
    18  H    0.064110
    19  H    0.015717
    20  H    0.063511
    21  H    0.083539
    22  H    0.058579
    23  H    0.280530
    24  Cl  -0.219965
    25  C    1.557361
    26  H    0.180702
    27  H    0.122550
    28  F   -0.328551
    29  F   -0.250682
    30  F   -0.250451
 Sum of Mulliken charges =  -0.00000

 Dipole moment (field-independent basis, Debye):
    X=             -6.4532    Y=             -5.0523    Z=             -0.8475  Tot=              8.2394
 Quadrupole moment (field-independent basis, Debye-Ang):
   XX=           -108.8669   YY=           -106.1934   ZZ=           -114.6139
   XY=              6.3921   XZ=              3.1164   YZ=              0.4381

 Normal termination of Gaussian 09 at Sat Nov 30 16:02:39 2019.
