 Gaussian 09, Revision E.01,
 Gaussian 09:  ES64L-G09RevE.01 30-Nov-2015

 -------------------------------------------------------------
 # MP2/Gen 6D SCF=Tight INT(grid=ultrafine) maxdisk=3489660928
 -------------------------------------------------------------

 ----------------
 CP19.MP2_6-31pGd
 ----------------
 Symbolic Z-matrix:
 Charge =  0 Multiplicity = 1

                         Standard orientation:
 ---------------------------------------------------------------------
 Center     Atomic      Atomic             Coordinates (Angstroms)
 Number     Number       Type             X           Y           Z
 ---------------------------------------------------------------------
      1          6           0       -0.185521   -0.754717   -0.021846
      2          7           0       -1.563890   -0.975466   -0.054157
      3          6           0       -2.577026   -0.024032    0.037749
      4          8           0       -2.378781    1.158839    0.203439
      5          7           0       -3.834366   -0.567486   -0.047666
      6          6           0       -4.986164    0.325417   -0.082303
      7          6           0       -6.278045   -0.468081    0.045525
      8          6           0       -7.499780    0.444964    0.019528
      9          6           0        0.389864    0.519649   -0.037883
     10          6           0        1.771592    0.639727   -0.026485
     11          6           0        2.609305   -0.475190    0.002566
     12          6           0        2.021391   -1.736751    0.019844
     13          6           0        0.646750   -1.880085    0.008172
     14          1           0       -1.844033   -1.943174    0.000076
     15          1           0       -3.940591   -1.453311   -0.520756
     16          1           0       -4.987322    0.918963   -1.004200
     17          1           0       -4.883482    1.027647    0.746417
     18          1           0       -6.252700   -1.042261    0.976389
     19          1           0       -6.346333   -1.194246   -0.773337
     20          1           0       -7.468788    1.164146    0.841307
     21          1           0       -8.423633   -0.127590    0.113117
     22          1           0       -7.551000    1.009870   -0.914280
     23          1           0       -0.228016    1.403637   -0.051191
     24         17           0        2.433221    2.246466   -0.048785
     25          6           0        4.106596   -0.345088    0.015975
     26          1           0        2.652003   -2.616193    0.043173
     27          1           0        0.212579   -2.874446    0.020648
     28          9           0        4.698774   -1.550216    0.044506
     29          9           0        4.572989    0.287903   -1.069246
     30          9           0        4.550551    0.328103    1.086092
 ---------------------------------------------------------------------

 SCF Done:  E(RHF) =  -1365.16386807     A.U. after   17 cycles
 E2 =    -0.2580197489D+01 EUMP2 =    -0.13677440655573D+04

 The electronic state is 1-A.
 Alpha  occ. eigenvalues -- -104.83589 -26.35131 -26.34400 -26.34392 -20.55049
 Alpha  occ. eigenvalues --  -15.63284 -15.60876 -11.51768 -11.40899 -11.33143
 Alpha  occ. eigenvalues --  -11.32641 -11.27815 -11.27567 -11.27536 -11.26371
 Alpha  occ. eigenvalues --  -11.25588 -11.24507 -11.23213 -10.56846  -8.03789
 Alpha  occ. eigenvalues --   -8.03439  -8.03436  -1.73069  -1.63411  -1.62957
 Alpha  occ. eigenvalues --   -1.42704  -1.28971  -1.24835  -1.20701  -1.13261
 Alpha  occ. eigenvalues --   -1.08268  -1.06370  -1.02386  -0.97338  -0.94172
 Alpha  occ. eigenvalues --   -0.88644  -0.86405  -0.83553  -0.82672  -0.81830
 Alpha  occ. eigenvalues --   -0.81375  -0.79842  -0.76701  -0.73270  -0.70605
 Alpha  occ. eigenvalues --   -0.70599  -0.67858  -0.67308  -0.66335  -0.65690
 Alpha  occ. eigenvalues --   -0.65673  -0.64555  -0.64122  -0.63348  -0.62978
 Alpha  occ. eigenvalues --   -0.61244  -0.60221  -0.58477  -0.56997  -0.55745
 Alpha  occ. eigenvalues --   -0.55276  -0.53146  -0.52506  -0.50801  -0.50102
 Alpha  occ. eigenvalues --   -0.49392  -0.46179  -0.45911  -0.45589  -0.41711
 Alpha  occ. eigenvalues --   -0.35620  -0.33537
 Alpha virt. eigenvalues --    0.04247   0.06951   0.07792   0.08106   0.08539
 Alpha virt. eigenvalues --    0.08899   0.09015   0.09511   0.09955   0.10948
 Alpha virt. eigenvalues --    0.11075   0.11493   0.12311   0.12384   0.12795

 Mulliken charges:
               1
     1  C   -0.101243
     2  N   -0.820356
     3  C    0.777010
     4  O   -0.634057
     5  N   -0.673501
     6  C   -0.061872
     7  C   -0.274752
     8  C   -0.676411
     9  C    0.267124
    10  C    0.868664
    11  C   -1.850703
    12  C   -0.202026
    13  C   -0.797465
    14  H    0.461662
    15  H    0.417596
    16  H    0.203266
    17  H    0.226365
    18  H    0.207392
    19  H    0.180589
    20  H    0.199025
    21  H    0.200002
    22  H    0.197140
    23  H    0.336893
    24  Cl   0.292775
    25  C    1.903125
    26  H    0.277947
    27  H    0.231706
    28  F   -0.441103
    29  F   -0.359073
    30  F   -0.355720
 Sum of Mulliken charges =  -0.00000

 Dipole moment (field-independent basis, Debye):
    X=             -6.4595    Y=             -5.2548    Z=             -0.8892  Tot=              8.3743
 Quadrupole moment (field-independent basis, Debye-Ang):
   XX=           -109.6755   YY=           -106.7035   ZZ=           -115.5762
   XY=              6.3630   XZ=              3.2887   YZ=              0.4868

 Normal termination of Gaussian 09 at Sat Nov 30 15:02:52 2019.
