 Gaussian 16, Revision C.01,
 Gaussian 16:  ES64L-G16RevC.01  3-Jul-2019

 ---------------------------------------------------------------------
 # DSDPBEP86/AUG-cc-PVTZ SCF=Tight INT(grid=ultrafine) MaxDisk=60000MB
 ---------------------------------------------------------------------

 -----------------------------
 CP19_c2.DSDPBEP86_AUG-cc-PVTZ
 -----------------------------
 Symbolic Z-matrix:
 Charge =  0 Multiplicity = 1

                         Standard orientation:
 ---------------------------------------------------------------------
 Center     Atomic      Atomic             Coordinates (Angstroms)
 Number     Number       Type             X           Y           Z
 ---------------------------------------------------------------------
      1          6           0        0.226956    0.173145    0.025176
      2          7           0        1.568767    0.559214    0.050765
      3          6           0        2.686621   -0.266785   -0.040619
      4          8           0        2.629617   -1.464626   -0.208400
      5          7           0        3.870869    0.421091    0.047745
      6          6           0        5.120286   -0.329133    0.079774
      7          6           0        6.309309    0.613527   -0.032888
      8          6           0        7.630715   -0.148292   -0.009693
      9          6           0       -0.725624    1.199428   -0.004054
     10          6           0       -2.076313    0.906188   -0.008264
     11          6           0       -2.520171   -0.416437    0.014904
     12          6           0       -1.564773   -1.426749    0.042472
     13          6           0       -0.204307   -1.156546    0.047429
     14          1           0        1.734042    1.552932   -0.005232
     15          1           0        3.871308    1.311910    0.523395
     16          1           0        5.105682   -1.029994   -0.756376
     17          1           0        5.187965   -0.927713    0.995908
     18          1           0        6.287453    1.333483    0.793921
     19          1           0        6.220006    1.190922   -0.957799
     20          1           0        7.744593   -0.713288    0.918513
     21          1           0        8.480467    0.530806   -0.092222
     22          1           0        7.688753   -0.857001   -0.839086
     23          1           0       -0.415983    2.238630   -0.021652
     24         17           0       -3.196126    2.235351   -0.043290
     25          6           0       -3.983399   -0.757950    0.011185
     26          1           0       -1.893407   -2.458215    0.059513
     27          1           0        0.513418   -1.960947    0.060820
     28          9           0       -4.175882   -2.084778    0.037610
     29          9           0       -4.625160   -0.251855    1.074348
     30          9           0       -4.610108   -0.296699   -1.080700
 ---------------------------------------------------------------------

 SCF Done:  E(RDSDPBEP86) =  -1367.76812758     A.U. after   13 cycles
 E2(DSDPBEP86) =    -0.1695748085D+01 E(DSDPBEP86) =    -0.13694638756627D+04

 The electronic state is 1-A.
 Alpha  occ. eigenvalues -- -103.58129 -25.70772 -25.70212 -25.70209 -19.98315
 Alpha  occ. eigenvalues --  -15.13927 -15.11721 -11.08428 -10.97695 -10.91326
 Alpha  occ. eigenvalues --  -10.90379 -10.86067 -10.85683 -10.85205 -10.84927
 Alpha  occ. eigenvalues --  -10.83321 -10.83165 -10.81797 -10.15633  -7.73318
 Alpha  occ. eigenvalues --   -7.72835  -7.72816  -1.57119  -1.47764  -1.47375
 Alpha  occ. eigenvalues --   -1.29265  -1.16827  -1.13159  -1.09591  -1.02709
 Alpha  occ. eigenvalues --   -0.97899  -0.96054  -0.92356  -0.87672  -0.84882
 Alpha  occ. eigenvalues --   -0.79450  -0.78799  -0.75372  -0.74123  -0.73223
 Alpha  occ. eigenvalues --   -0.72978  -0.71094  -0.69251  -0.66349  -0.61770
 Alpha  occ. eigenvalues --   -0.61623  -0.61275  -0.59717  -0.59601  -0.58636
 Alpha  occ. eigenvalues --   -0.57311  -0.57096  -0.56776  -0.56181  -0.55264
 Alpha  occ. eigenvalues --   -0.54558  -0.53967  -0.52650  -0.51321  -0.49935
 Alpha  occ. eigenvalues --   -0.49043  -0.47423  -0.47089  -0.45579  -0.44802
 Alpha  occ. eigenvalues --   -0.44096  -0.41474  -0.41002  -0.39646  -0.36601
 Alpha  occ. eigenvalues --   -0.32750  -0.30315
 Alpha virt. eigenvalues --    0.00191   0.01507   0.02329   0.02488   0.03215
 Alpha virt. eigenvalues --    0.03436   0.03470   0.03765   0.04597   0.04762
 Alpha virt. eigenvalues --    0.04966   0.05310   0.06081   0.06574   0.06819

 Mulliken charges:
               1
     1  C    0.659582
     2  N   -0.392010
     3  C    0.313614
     4  O   -0.811511
     5  N   -0.063862
     6  C   -0.125546
     7  C   -0.415032
     8  C   -0.978692
     9  C   -0.962398
    10  C    0.810318
    11  C    0.248894
    12  C   -0.774452
    13  C   -0.355332
    14  H    0.013829
    15  H    0.054288
    16  H    0.306888
    17  H    0.287453
    18  H    0.234625
    19  H    0.252684
    20  H    0.274971
    21  H    0.276777
    22  H    0.277424
    23  H    0.380339
    24  Cl  -0.459444
    25  C    1.183610
    26  H    0.297636
    27  H    0.644702
    28  F   -0.364592
    29  F   -0.408181
    30  F   -0.406583
 Sum of Mulliken charges =  -0.00000

 Dipole moment (field-independent basis, Debye):
    X=              6.2408    Y=              3.0670    Z=              0.8590  Tot=              7.0065
 Quadrupole moment (field-independent basis, Debye-Ang):
   XX=           -110.1524   YY=           -109.0495   ZZ=           -113.9547
   XY=             10.0341   XZ=              3.0165   YZ=              0.2392

 Normal termination of Gaussian 16 at Wed Sep  9 20:11:07 2020.
