 Q-Chem 5.0, Q-Chem, Inc., Pleasanton, CA (2017)
 Q-Chem 5.0.0 for Intel X86 EM64T Linux

User input:
--------------------------------------------------------------
$molecule
  0 1
    C     -6.2723304200    1.4157811597   -0.0006268092
    N     -5.0228905115    0.7930530560    0.0350288231
    C     -3.7728366790    1.4072440652    0.0160819501
    O     -3.6095794860    2.6070636568    0.0146574578
    N     -2.7340192472    0.5105491394    0.0308891718
    C     -1.3707340862    1.0100418431   -0.0989844890
    C     -0.3690942356   -0.1077962292    0.1504779418
    C      1.0672538533    0.3911555746    0.0281129047
    C     -7.3935234681    0.5932937771    0.1665888279
    C     -8.6688587036    1.1242917509    0.1226786916
    C     -8.8673955835    2.4893488258   -0.0872874356
    C     -7.7462770605    3.2960052430   -0.2506130266
    C     -6.4571885420    2.7855613836   -0.2106085962
    H     -5.0383620591   -0.1967102376    0.2301051026
    H     -2.9037689183   -0.4226499675   -0.3157040869
    H     -1.2418841584    1.8107001969    0.6310220645
    H     -1.2147580036    1.4539093437   -1.0893548604
    H     -0.5370531127   -0.9191438891   -0.5678051958
    H     -0.5423395604   -0.5259023146    1.1464668854
    H      1.2623655568    0.7922771580   -0.9692775949
    H      1.7821559004   -0.4127141529    0.2091445643
    H      1.2688197240    1.1853501596    0.7507164431
    H     -7.2759974095   -0.4722417649    0.3307563214
    Cl   -10.0089927485    0.0380259625    0.3370431866
    C    -10.2447112205    3.0876849677   -0.1390183572
    H     -7.8838643184    4.3575280509   -0.4132489856
    H     -5.6066341860    3.4367851958   -0.3323987941
    F    -10.1953508559    4.4108054742   -0.3514700238
    F    -10.9885083580    2.5642817182   -1.1244726977
    F    -10.9221421016    2.9031908532    1.0032506160

$end

$rem

    JOBTYPE               sp
    METHOD                CCSD(T)
    BASIS                 6-31+G*
    CC_BACKEND            XM

    MEM_TOTAL             60000
$end
--------------------------------------------------------------

             Standard Nuclear Orientation (Angstroms)
    I     Atom           X                Y                Z
 ----------------------------------------------------------------
    1      C       0.2269562013    -0.1731451973    -0.0251756170
    2      N       1.5687674488    -0.5592144591    -0.0507647056
    3      C       2.6866214808     0.2667852824     0.0406188480
    4      O       2.6296169457     1.4646258798     0.2083995947
    5      N       3.8708686506    -0.4210906014    -0.0477446608
    6      C       5.1202864100     0.3291333175    -0.0797742250
    7      C       6.3093085591    -0.6135274833     0.0328880772
    8      C       7.6307149148     0.1482921540     0.0096928070
    9      C      -0.7256244253    -1.1994279033     0.0040540250
   10      C      -2.0763129110    -0.9061877216     0.0082637295
   11      C      -2.5201709984     0.4164372275    -0.0149036455
   12      C      -1.5647727191     1.4267494018    -0.0424718347
   13      C      -0.2043065107     1.1565464880    -0.0474294510
   14      H       1.7340421264    -1.5529317766     0.0052323904
   15      H       3.8713082238    -1.3119100902    -0.5233945910
   16      H       5.1056819531     1.0299936324     0.7563760009
   17      H       5.1879651130     0.9277134481    -0.9959083797
   18      H       6.2874528971    -1.3334825301    -0.7939208100
   19      H       6.2200058225    -1.1909224609     0.9577992503
   20      H       7.7445934369     0.7132875512    -0.9185134166
   21      H       8.4804673221    -0.5308055186     0.0922224068
   22      H       7.6887529903     0.8570009572     0.8390860352
   23      H      -0.4159830001    -2.2386304004     0.0216520248
   24      Cl     -3.1961263859    -2.2353512550     0.0432900172
   25      C      -3.9833988654     0.7579499954    -0.0111848116
   26      H      -1.8934068859     2.4582146538    -0.0595129175
   27      H       0.5134177205     1.9609472813    -0.0608201196
   28      F      -4.1758815004     2.0847778525    -0.0376102509
   29      F      -4.6251597164     0.2518552292    -1.0743482506
   30      F      -4.6101081428     0.2966993190     1.0806999714
 ----------------------------------------------------------------

   15   -1365.1643429263      7.98E-09 Convergence criterion met
 Total energy in the final basis set = -1365.1643429263
 CCSD total energy           = -1367.82603927
 CCSD(T) total energy       = -1367.92576157

                    Orbital Energies (a.u.)
 --------------------------------------------------------------

 Alpha MOs
 -- Occupied --
******* -26.351 -26.345 -26.345 -20.551 -15.633 -15.609 -11.518
-11.409 -11.336 -11.326 -11.276 -11.276 -11.274 -11.269 -11.251
-11.245 -11.233 -10.576  -8.046  -8.042  -8.042  -1.731  -1.635
 -1.630  -1.427  -1.290  -1.249  -1.210  -1.134  -1.084  -1.065
 -1.025  -0.972  -0.943  -0.883  -0.874  -0.836  -0.826  -0.819
 -0.815  -0.792  -0.769  -0.734  -0.706  -0.706  -0.679  -0.670
 -0.668  -0.657  -0.655  -0.651  -0.642  -0.633  -0.628  -0.611
 -0.604  -0.585  -0.571  -0.556  -0.555  -0.534  -0.525  -0.509
 -0.502  -0.494  -0.468  -0.460  -0.458  -0.417  -0.359  -0.335

          Ground-State Mulliken Net Atomic Charges

     Atom                 Charge (a.u.)
  ----------------------------------------
      1 C                     0.004185
      2 N                    -0.818113
      3 C                     0.776047
      4 O                    -0.632793
      5 N                    -0.673964
      6 C                    -0.052661
      7 C                    -0.277101
      8 C                    -0.675621
      9 C                    -1.149251
     10 C                     0.511314
     11 C                    -1.612165
     12 C                     0.041976
     13 C                     0.457006
     14 H                     0.461647
     15 H                     0.418410
     16 H                     0.225312
     17 H                     0.202941
     18 H                     0.181209
     19 H                     0.207620
     20 H                     0.196971
     21 H                     0.200272
     22 H                     0.198756
     23 H                     0.249177
     24 Cl                    0.299132
     25 C                     1.827903
     26 H                     0.278674
     27 H                     0.318059
     28 F                    -0.439298
     29 F                    -0.363919
     30 F                    -0.361725
  ----------------------------------------
  Sum of atomic charges =     0.000000

                    Cartesian Multipole Moments
 -----------------------------------------------------------------
    Charge (ESU x 10^10)
                -0.0000
    Dipole Moment (Debye)
         X       6.3720      Y      -3.2023      Z      -0.9370
       Tot       7.1928
    Quadrupole Moments (Debye-Ang)
        XX    -112.8019     XY     -10.7200     YY    -109.9608
        XZ      -3.2925     YZ       0.2600     ZZ    -115.5759

 Total job time:  100528.47s(wall), 339913.29s(cpu)
        *  Thank you very much for using Q-Chem.  Have a nice day.  *
