 Gaussian 09, Revision E.01,
 Gaussian 09:  ES64L-G09RevE.01 30-Nov-2015

 -------------------------------------------------------------
 # MP2/Gen 6D SCF=Tight INT(grid=ultrafine) maxdisk=3489660928
 -------------------------------------------------------------

 -------------------
 CP19_c2.MP2_6-31pGd
 -------------------
 Symbolic Z-matrix:
 Charge =  0 Multiplicity = 1

                         Standard orientation:
 ---------------------------------------------------------------------
 Center     Atomic      Atomic             Coordinates (Angstroms)
 Number     Number       Type             X           Y           Z
 ---------------------------------------------------------------------
      1          6           0        0.226956    0.173145    0.025176
      2          7           0        1.568767    0.559214    0.050765
      3          6           0        2.686621   -0.266785   -0.040619
      4          8           0        2.629617   -1.464626   -0.208400
      5          7           0        3.870869    0.421091    0.047745
      6          6           0        5.120286   -0.329133    0.079774
      7          6           0        6.309309    0.613527   -0.032888
      8          6           0        7.630715   -0.148292   -0.009693
      9          6           0       -0.725624    1.199428   -0.004054
     10          6           0       -2.076313    0.906188   -0.008264
     11          6           0       -2.520171   -0.416437    0.014904
     12          6           0       -1.564773   -1.426749    0.042472
     13          6           0       -0.204307   -1.156546    0.047429
     14          1           0        1.734042    1.552932   -0.005232
     15          1           0        3.871308    1.311910    0.523395
     16          1           0        5.105682   -1.029994   -0.756376
     17          1           0        5.187965   -0.927713    0.995908
     18          1           0        6.287453    1.333483    0.793921
     19          1           0        6.220006    1.190922   -0.957799
     20          1           0        7.744593   -0.713288    0.918513
     21          1           0        8.480467    0.530806   -0.092222
     22          1           0        7.688753   -0.857001   -0.839086
     23          1           0       -0.415983    2.238630   -0.021652
     24         17           0       -3.196126    2.235351   -0.043290
     25          6           0       -3.983399   -0.757950    0.011185
     26          1           0       -1.893407   -2.458215    0.059513
     27          1           0        0.513418   -1.960947    0.060820
     28          9           0       -4.175882   -2.084778    0.037610
     29          9           0       -4.625160   -0.251855    1.074348
     30          9           0       -4.610108   -0.296699   -1.080700
 ---------------------------------------------------------------------

 SCF Done:  E(RHF) =  -1365.16434294     A.U. after   17 cycles
 E2 =    -0.2579751119D+01 EUMP2 =    -0.13677440940577D+04

 The electronic state is 1-A.
 Alpha  occ. eigenvalues -- -104.84361 -26.35136 -26.34465 -26.34461 -20.55093
 Alpha  occ. eigenvalues --  -15.63299 -15.60898 -11.51805 -11.40931 -11.33558
 Alpha  occ. eigenvalues --  -11.32647 -11.27614 -11.27601 -11.27390 -11.26867
 Alpha  occ. eigenvalues --  -11.25129 -11.24540 -11.23253 -10.57611  -8.04554
 Alpha  occ. eigenvalues --   -8.04204  -8.04204  -1.73118  -1.63464  -1.62999
 Alpha  occ. eigenvalues --   -1.42725  -1.29005  -1.24869  -1.21007  -1.13422
 Alpha  occ. eigenvalues --   -1.08378  -1.06456  -1.02495  -0.97250  -0.94263
 Alpha  occ. eigenvalues --   -0.88253  -0.87387  -0.83556  -0.82563  -0.81880
 Alpha  occ. eigenvalues --   -0.81521  -0.79218  -0.76852  -0.73411  -0.70635
 Alpha  occ. eigenvalues --   -0.70623  -0.67927  -0.67049  -0.66805  -0.65716
 Alpha  occ. eigenvalues --   -0.65541  -0.65073  -0.64175  -0.63301  -0.62829
 Alpha  occ. eigenvalues --   -0.61103  -0.60377  -0.58524  -0.57107  -0.55616
 Alpha  occ. eigenvalues --   -0.55535  -0.53354  -0.52543  -0.50903  -0.50155
 Alpha  occ. eigenvalues --   -0.49427  -0.46849  -0.46004  -0.45796  -0.41717
 Alpha  occ. eigenvalues --   -0.35883  -0.33482
 Alpha virt. eigenvalues --    0.04435   0.07184   0.07791   0.08173   0.08386
 Alpha virt. eigenvalues --    0.08796   0.09061   0.09486   0.09800   0.10906
 Alpha virt. eigenvalues --    0.11146   0.11595   0.12209   0.12280   0.12697

 Mulliken charges:
               1
     1  C    0.004185
     2  N   -0.818112
     3  C    0.776047
     4  O   -0.632792
     5  N   -0.673963
     6  C   -0.052662
     7  C   -0.277100
     8  C   -0.675621
     9  C   -1.149241
    10  C    0.511315
    11  C   -1.612176
    12  C    0.041974
    13  C    0.457005
    14  H    0.461647
    15  H    0.418410
    16  H    0.225312
    17  H    0.202941
    18  H    0.181209
    19  H    0.207620
    20  H    0.196971
    21  H    0.200272
    22  H    0.198756
    23  H    0.249177
    24  Cl   0.299132
    25  C    1.827906
    26  H    0.278674
    27  H    0.318059
    28  F   -0.439298
    29  F   -0.363919
    30  F   -0.361725
 Sum of Mulliken charges =  -0.00000

 Dipole moment (field-independent basis, Debye):
    X=              6.3720    Y=              3.2023    Z=              0.9370  Tot=              7.1928
 Quadrupole moment (field-independent basis, Debye-Ang):
   XX=           -112.8019   YY=           -109.9608   ZZ=           -115.5759
   XY=             10.7200   XZ=              3.2925   YZ=              0.2600

 Normal termination of Gaussian 09 at Sat Nov 30 15:03:57 2019.
