 Gaussian 09, Revision E.01,

 ----------------------------------------------------------------------
 # M062X/6-311+G* SCF=Tight INT(grid=ultrafine) OPT=CalcFC IOP(2/17=4)
 EmpiricalDispersion=GD3 maxdisk=2684354560
 ----------------------------------------------------------------------

 ------------------------------
 CP22_c2.M062X_6-311pGd_opt_GD3
 ------------------------------
 Symbolic Z-matrix:
 Charge =  0 Multiplicity = 1

 SCF Done:  E(RM062X) =  -1930.36978372     A.U. after   18 cycles
 SCF Done:  E(RM062X) =  -1930.40527170     A.U. after   16 cycles
 SCF Done:  E(RM062X) =  -1930.41261223     A.U. after   16 cycles
 SCF Done:  E(RM062X) =  -1930.41567952     A.U. after   16 cycles
 SCF Done:  E(RM062X) =  -1930.41632245     A.U. after   16 cycles
 SCF Done:  E(RM062X) =  -1930.36579108     A.U. after   16 cycles
 SCF Done:  E(RM062X) =  -1930.41637748     A.U. after    9 cycles
 SCF Done:  E(RM062X) =  -1930.41646844     A.U. after   16 cycles
 SCF Done:  E(RM062X) =  -1930.38309792     A.U. after   17 cycles
 SCF Done:  E(RM062X) =  -1930.41646895     A.U. after   13 cycles
 SCF Done:  E(RM062X) =  -1930.41673408     A.U. after   14 cycles
 SCF Done:  E(RM062X) =  -1930.41684533     A.U. after   13 cycles
 SCF Done:  E(RM062X) =  -1930.41686885     A.U. after   12 cycles
 SCF Done:  E(RM062X) =  -1930.41687242     A.U. after   12 cycles
 SCF Done:  E(RM062X) =  -1930.41687279     A.U. after   10 cycles
 SCF Done:  E(RM062X) =  -1930.41687291     A.U. after    9 cycles
 SCF Done:  E(RM062X) =  -1930.41687307     A.U. after   10 cycles
 SCF Done:  E(RM062X) =  -1930.41687322     A.U. after    9 cycles
 SCF Done:  E(RM062X) =  -1930.41687328     A.U. after    9 cycles
 Optimization completed.
    -- Stationary point found.
 Normal termination of Gaussian 09 at Fri Nov 15 12:45:55 2019.
 Gaussian 09:  ES64L-G09RevE.01 30-Nov-2015

 ----------------------------------------------------------------------
 # M062X/6-311+G* SCF=Tight INT(grid=ultrafine) EmpiricalDispersion=GD3
  Freq=Noraman maxdisk=2684354560 geom=check guess=read IOP(2/17=4)
 ----------------------------------------------------------------------

 ------------------------------
 CP22_c2.M062X_6-311pGd_opt_GD3
 ------------------------------
 Structure from the checkpoint file:  "CP22_c2.M062X_6-311pGd_opt_GD3.chk"
 Charge =  0 Multiplicity = 1

                         Standard orientation:
 ---------------------------------------------------------------------
 Center     Atomic      Atomic             Coordinates (Angstroms)
 Number     Number       Type             X           Y           Z
 ---------------------------------------------------------------------
      1          6           0        0.570594    0.213779    0.044558
      2          7           0        1.803515   -0.441491    0.085774
      3          6           0        3.067346    0.136140   -0.021984
      4          8           0        3.251877    1.319417   -0.202685
      5          7           0        4.085454   -0.776384    0.067694
      6          6           0        5.463676   -0.301089    0.080100
      7          6           0        6.429522   -1.469688   -0.048680
      8          6           0        7.880280   -0.998352   -0.046541
      9          6           0       -0.574573   -0.590638    0.028006
     10          6           0       -1.817901    0.009758    0.008141
     11          6           0       -1.993744    1.383533    0.004110
     12          6           0       -0.840124    2.154537    0.021143
     13          6           0        0.434160    1.605727    0.041477
     14          1           0        1.758265   -1.448416    0.042248
     15          1           0        3.906978   -1.652111    0.537667
     16          1           0        5.666651    0.268672    0.994479
     17          1           0        5.581896    0.388898   -0.756828
     18          1           0        6.208609   -2.014443   -0.971315
     19          1           0        6.271070   -2.170651    0.779515
     20          1           0        8.071629   -0.315862   -0.877852
     21          1           0        8.569126   -1.838922   -0.140911
     22          1           0        8.123029   -0.470917    0.878980
     23          1           0       -0.486768   -1.670136    0.031895
     24         17           0       -0.998658    3.885460    0.017379
     25          1           0        1.304593    2.243158    0.046128
     26         16           0       -3.284817   -1.050560   -0.012799
     27          1           0       -2.972933    1.840785   -0.012218
     28          9           0       -2.690790   -2.010934    1.145117
     29          9           0       -4.028289   -0.160273    1.108065
     30          9           0       -2.647833   -2.026417   -1.133850
     31          9           0       -3.984679   -0.175115   -1.172436
     32          9           0       -4.584087   -1.993524   -0.031033
 ---------------------------------------------------------------------

 SCF Done:  E(RM062X) =  -1930.41687328     A.U. after    2 cycles

 The electronic state is 1-A.
 Alpha  occ. eigenvalues -- -102.68905 -90.28600 -25.28920 -25.28914 -25.28912
 Alpha  occ. eigenvalues --  -25.28909 -25.28770 -19.61157 -14.81411 -14.79080
 Alpha  occ. eigenvalues --  -10.69918 -10.63529 -10.63436 -10.62153 -10.58962
 Alpha  occ. eigenvalues --  -10.58752 -10.58539 -10.57520 -10.55717 -10.54223
 Alpha  occ. eigenvalues --   -9.83174  -8.60898  -7.55693  -7.55007  -7.54991
 Alpha  occ. eigenvalues --   -6.53329  -6.53319  -6.52882  -1.50867  -1.40751
 Alpha  occ. eigenvalues --   -1.40651  -1.37768  -1.36230  -1.20657  -1.09074
 Alpha  occ. eigenvalues --   -1.05598  -1.02407  -0.97976  -0.93731  -0.90500
 Alpha  occ. eigenvalues --   -0.87716  -0.86364  -0.80350  -0.77134  -0.74859
 Alpha  occ. eigenvalues --   -0.74220  -0.73533  -0.71466  -0.70831  -0.67693
 Alpha  occ. eigenvalues --   -0.66194  -0.64686  -0.62776  -0.62637  -0.61952
 Alpha  occ. eigenvalues --   -0.60546  -0.58749  -0.58102  -0.56751  -0.56008
 Alpha  occ. eigenvalues --   -0.55973  -0.55898  -0.55633  -0.55542  -0.54575
 Alpha  occ. eigenvalues --   -0.53336  -0.53082  -0.52738  -0.52037  -0.51994
 Alpha  occ. eigenvalues --   -0.50427  -0.50265  -0.49013  -0.47787  -0.47640
 Alpha  occ. eigenvalues --   -0.45348  -0.44546  -0.43921  -0.42479  -0.41804
 Alpha  occ. eigenvalues --   -0.40006  -0.39305  -0.37302  -0.34736  -0.33155
 Alpha  occ. eigenvalues --   -0.30264
 Alpha virt. eigenvalues --   -0.02645  -0.02579  -0.01404  -0.01031   0.00958
 Alpha virt. eigenvalues --    0.01687   0.02082   0.02655   0.03113   0.03892
 Alpha virt. eigenvalues --    0.04427   0.04444   0.04910   0.05069   0.05542

 Mulliken charges:
               1
     1  C   -0.941343
     2  N   -0.368721
     3  C    0.088361
     4  O   -0.326474
     5  N   -0.274400
     6  C   -0.538418
     7  C   -0.120766
     8  C   -1.016476
     9  C    0.374098
    10  C   -1.874769
    11  C    0.273563
    12  C    0.501403
    13  C   -0.443507
    14  H    0.342103
    15  H    0.324743
    16  H    0.264156
    17  H    0.271470
    18  H    0.263929
    19  H    0.233992
    20  H    0.262430
    21  H    0.270637
    22  H    0.260777
    23  H    0.264668
    24  Cl   0.439733
    25  H    0.335073
    26  S    0.525540
    27  H    0.320475
    28  F    0.063933
    29  F    0.061982
    30  F    0.066286
    31  F    0.060574
    32  F    0.034948
 Sum of Mulliken charges =  -0.00000

 Dipole moment (field-independent basis, Debye):
    X=              5.6053    Y=             -3.0045    Z=              0.8858  Tot=              6.4211
 Quadrupole moment (field-independent basis, Debye-Ang):
   XX=           -124.2914   YY=           -132.3357   ZZ=           -134.1253
   XY=            -19.0229   XZ=              3.2718   YZ=             -0.7982

  Exact polarizability: 228.172  -9.566 185.280   0.712  -1.164 108.079
 Approx polarizability: 226.155  -7.564 236.203   0.686  -2.674 144.161

                      1                      2                      3
                      A                      A                      A
 Frequencies --     14.1636                16.9135                30.9414
 Red. masses --      6.2916                 2.6159                 8.5467
 Frc consts  --      0.0007                 0.0004                 0.0048
 IR Inten    --      1.0120                 3.8586                 0.9061

                      4                      5                      6
                      A                      A                      A
 Frequencies --     49.8096                57.7317                74.1599
 Red. masses --      4.7781                 4.1563                 3.1861
 Frc consts  --      0.0070                 0.0082                 0.0103
 IR Inten    --      1.0756                 5.1564                 1.5310

                      7                      8                      9
                      A                      A                      A
 Frequencies --    100.1759               112.4548               141.2328
 Red. masses --      6.9904                 7.4016                 8.6040
 Frc consts  --      0.0413                 0.0551                 0.1011
 IR Inten    --      0.1147                 3.8245                 3.3050

                     10                     11                     12
                      A                      A                      A
 Frequencies --    181.5045               191.8951               194.2981
 Red. masses --      2.9674                 5.6361                 6.9092
 Frc consts  --      0.0576                 0.1223                 0.1537
 IR Inten    --      0.4289                 0.4002                 0.4631

                     13                     14                     15
                      A                      A                      A
 Frequencies --    219.1672               237.9795               243.1733
 Red. masses --      8.8267                 2.6043                 1.2697
 Frc consts  --      0.2498                 0.0869                 0.0442
 IR Inten    --      3.4648                 0.9135                 0.4226

                     16                     17                     18
                      A                      A                      A
 Frequencies --    268.5283               272.2482               325.2021
 Red. masses --      5.8544                 7.4389                 4.6118
 Frc consts  --      0.2487                 0.3249                 0.2874
 IR Inten    --      3.2827                 0.0076                10.8354

                     19                     20                     21
                      A                      A                      A
 Frequencies --    337.9977               341.3655               366.4766
 Red. masses --     18.6767                 1.7404                 3.4474
 Frc consts  --      1.2571                 0.1195                 0.2728
 IR Inten    --      0.0207                74.1083                14.5503

                     22                     23                     24
                      A                      A                      A
 Frequencies --    387.5243               389.1849               432.3768
 Red. masses --     11.8238                11.0948                 7.6251
 Frc consts  --      1.0462                 0.9901                 0.8399
 IR Inten    --      3.9987                 3.7539                 1.3619

                     25                     26                     27
                      A                      A                      A
 Frequencies --    453.4481               471.4588               490.1589
 Red. masses --     18.8273                 3.0549                 4.5907
 Frc consts  --      2.2808                 0.4001                 0.6498
 IR Inten    --      0.0173                14.1856                13.1758

                     28                     29                     30
                      A                      A                      A
 Frequencies --    503.4609               536.5943               553.5598
 Red. masses --      1.5152                14.4727                13.2366
 Frc consts  --      0.2263                 2.4552                 2.3898
 IR Inten    --    101.6513                 6.2599                 8.7788

                     31                     32                     33
                      A                      A                      A
 Frequencies --    569.7578               585.8672               598.1778
 Red. masses --      5.3350                18.1129                18.6531
 Frc consts  --      1.0204                 3.6630                 3.9324
 IR Inten    --      3.1843               100.1468                 0.4282

                     34                     35                     36
                      A                      A                      A
 Frequencies --    613.0625               646.5829               661.0717
 Red. masses --      6.0295                 7.9344                 9.3561
 Frc consts  --      1.3352                 1.9544                 2.4090
 IR Inten    --      3.2190                30.2992                18.3178

                     37                     38                     39
                      A                      A                      A
 Frequencies --    690.7802               755.0215               761.0783
 Red. masses --      2.4566                 1.2626                 7.3615
 Frc consts  --      0.6907                 0.4241                 2.5123
 IR Inten    --     17.7785                13.5279               189.4113

                     40                     41                     42
                      A                      A                      A
 Frequencies --    775.9149               799.9533               859.0938
 Red. masses --      5.0405                 6.1783                 2.4199
 Frc consts  --      1.7879                 2.3294                 1.0523
 IR Inten    --     18.0460                28.9919                49.6687

                     43                     44                     45
                      A                      A                      A
 Frequencies --    872.6062               873.2329               875.3405
 Red. masses --     13.0292                 3.9824                 1.4299
 Frc consts  --      5.8453                 1.7892                 0.6455
 IR Inten    --    336.9613               372.4964                10.1955

                     46                     47                     48
                      A                      A                      A
 Frequencies --    888.1774               902.7419               925.7736
 Red. masses --     12.9068                 1.2026                 1.9045
 Frc consts  --      5.9988                 0.5774                 0.9617
 IR Inten    --    317.1417                 8.4991                 3.8685

                     49                     50                     51
                      A                      A                      A
 Frequencies --    937.9994               969.5509              1012.0546
 Red. masses --      1.3788                 4.6994                 5.9140
 Frc consts  --      0.7147                 2.6028                 3.5690
 IR Inten    --     10.6419                48.7826                 4.9896

                     52                     53                     54
                      A                      A                      A
 Frequencies --   1048.4649              1079.6458              1147.9415
 Red. masses --      4.1640                 2.6574                 2.5553
 Frc consts  --      2.6969                 1.8250                 1.9840
 IR Inten    --      0.1355                 2.4504                 8.9431

                     55                     56                     57
                      A                      A                      A
 Frequencies --   1156.4909              1166.2846              1169.1422
 Red. masses --      1.6310                 2.7316                 1.6701
 Frc consts  --      1.2853                 2.1892                 1.3450
 IR Inten    --     30.9832                11.6701                26.2943

                     58                     59                     60
                      A                      A                      A
 Frequencies --   1182.0010              1235.1509              1282.8181
 Red. masses --      1.7205                 1.7936                 1.6587
 Frc consts  --      1.4163                 1.6122                 1.6082
 IR Inten    --      0.2449               354.0826                 8.2038

                     61                     62                     63
                      A                      A                      A
 Frequencies --   1291.7259              1313.8273              1333.5591
 Red. masses --      1.4932                 2.1348                 1.1761
 Frc consts  --      1.4679                 2.1711                 1.2323
 IR Inten    --     92.9521                43.4754                22.7396

                     64                     65                     66
                      A                      A                      A
 Frequencies --   1348.1419              1352.8508              1423.4908
 Red. masses --      1.2877                 2.6017                 1.5365
 Frc consts  --      1.3789                 2.8055                 1.8344
 IR Inten    --      2.5015                46.9809                 0.6923

                     67                     68                     69
                      A                      A                      A
 Frequencies --   1433.1145              1463.6602              1509.8811
 Red. masses --      1.2879                 2.7908                 1.0659
 Frc consts  --      1.5584                 3.5225                 1.4317
 IR Inten    --      2.6404                71.3184                12.6657

                     70                     71                     72
                      A                      A                      A
 Frequencies --   1513.6504              1523.3822              1524.6609
 Red. masses --      3.3125                 1.0461                 1.0655
 Frc consts  --      4.4715                 1.4304                 1.4594
 IR Inten    --    215.7816                10.6891                 2.7215

                     73                     74                     75
                      A                      A                      A
 Frequencies --   1537.2745              1552.5577              1586.3652
 Red. masses --      1.1231                 1.7189                 2.2370
 Frc consts  --      1.5638                 2.4412                 3.3168
 IR Inten    --      9.3234               258.0768               825.9083

                     76                     77                     78
                      A                      A                      A
 Frequencies --   1657.6641              1680.9853              1820.9619
 Red. masses --      4.7836                 6.5290                 8.5317
 Frc consts  --      7.7445                10.8699                16.6681
 IR Inten    --    155.6406                83.2269               278.6731

                     79                     80                     81
                      A                      A                      A
 Frequencies --   3053.0259              3056.1576              3072.3321
 Red. masses --      1.0639                 1.0724                 1.0371
 Frc consts  --      5.8425                 5.9013                 5.7677
 IR Inten    --     15.2143                32.4100                28.3827

                     82                     83                     84
                      A                      A                      A
 Frequencies --   3099.4013              3134.1519              3143.1682
 Red. masses --      1.0956                 1.0977                 1.1020
 Frc consts  --      6.2009                 6.3526                 6.4146
 IR Inten    --     12.7917                 0.7955                45.1247

                     85                     86                     87
                      A                      A                      A
 Frequencies --   3151.1737              3233.7274              3264.5131
 Red. masses --      1.1020                 1.0920                 1.0935
 Frc consts  --      6.4471                 6.7280                 6.8663
 IR Inten    --     25.1660                 3.2959                 9.7879

                     88                     89                     90
                      A                      A                      A
 Frequencies --   3287.1811              3638.9270              3654.2991
 Red. masses --      1.0925                 1.0773                 1.0769
 Frc consts  --      6.9555                 8.4048                 8.4728
 IR Inten    --     21.6577                19.4522                34.5239

 - Thermochemistry -
 -------------------
 Temperature   298.150 Kelvin.  Pressure   1.00000 Atm.
 Atom     1 has atomic number  6 and mass  12.00000

 Molecular mass:   338.02790 amu.
 Principal axes and moments of inertia in atomic units:
                           1         2         3
     Eigenvalues --  3997.06501********************
           X            0.99975  -0.02231   0.00031
           Y            0.02231   0.99975  -0.00081
           Z           -0.00029   0.00082   1.00000
 This molecule is an asymmetric top.
 Rotational symmetry number  1.
 Warning -- assumption of classical behavior for rotation
           may cause significant error
 Rotational temperatures (Kelvin)      0.02167     0.00552     0.00457
 Rotational constants (GHZ):           0.45152     0.11496     0.09525
 Zero-point vibrational energy     602276.6 (Joules/Mol)
                                  143.94755 (Kcal/Mol)
 Warning -- explicit consideration of  34 degrees of freedom as
           vibrations may cause significant error
 Vibrational temperatures:     20.38    24.33    44.52    71.66    83.06
          (Kelvin)            106.70   144.13   161.80   203.20   261.14
                              276.09   279.55   315.33   342.40   349.87
                              386.35   391.70   467.89   486.30   491.15
                              527.28   557.56   559.95   622.09   652.41
                              678.32   705.23   724.37   772.04   796.45
                              819.75   842.93   860.64   882.06   930.29
                              951.13   993.88  1086.31  1095.02  1116.37
                             1150.95  1236.04  1255.48  1256.39  1259.42
                             1277.89  1298.84  1331.98  1349.57  1394.97
                             1456.12  1508.51  1553.37  1651.63  1663.93
                             1678.02  1682.13  1700.63  1777.10  1845.69
                             1858.50  1890.30  1918.69  1939.67  1946.45
                             2048.08  2061.93  2105.88  2172.38  2177.80
                             2191.80  2193.64  2211.79  2233.78  2282.42
                             2385.01  2418.56  2619.95  4392.62  4397.12
                             4420.40  4459.34  4509.34  4522.31  4533.83
                             4652.61  4696.90  4729.51  5235.60  5257.71

 Zero-point correction=                           0.229395 (Hartree/Particle)
 Thermal correction to Energy=                    0.249590
 Thermal correction to Enthalpy=                  0.250534
 Thermal correction to Gibbs Free Energy=         0.177043
 Sum of electronic and zero-point Energies=          -1930.187478
 Sum of electronic and thermal Energies=             -1930.167284
 Sum of electronic and thermal Enthalpies=           -1930.166339
 Sum of electronic and thermal Free Energies=        -1930.239831

                     E (Thermal)             CV                S
                      KCal/Mol        Cal/Mol-Kelvin    Cal/Mol-Kelvin
 Total                  156.620             74.437            154.675
 Electronic               0.000              0.000              0.000
 Translational            0.889              2.981             43.349
 Rotational               0.889              2.981             35.429
 Vibrational            154.842             68.475             75.897
 Vibration     1          0.593              1.986              7.320
 Vibration     2          0.593              1.986              6.967
 Vibration     3          0.594              1.984              5.768
 Vibration     4          0.595              1.978              4.825
 Vibration     5          0.596              1.974              4.533
 Vibration     6          0.599              1.966              4.040
 Vibration     7          0.604              1.949              3.451
 Vibration     8          0.607              1.939              3.226
 Vibration     9          0.615              1.912              2.787
 Vibration    10          0.630              1.865              2.313
 Vibration    11          0.634              1.851              2.209
 Vibration    12          0.635              1.848              2.186
 Vibration    13          0.647              1.812              1.966
 Vibration    14          0.656              1.782              1.818
 Vibration    15          0.659              1.774              1.780
 Vibration    16          0.673              1.731              1.606
 Vibration    17          0.675              1.724              1.582
 Vibration    18          0.709              1.625              1.284
 Vibration    19          0.718              1.600              1.222
 Vibration    20          0.721              1.593              1.206
 Vibration    21          0.739              1.541              1.095
 Vibration    22          0.756              1.497              1.010
 Vibration    23          0.757              1.493              1.003
 Vibration    24          0.793              1.400              0.851
 Vibration    25          0.812              1.353              0.785
 Vibration    26          0.828              1.313              0.733
 Vibration    27          0.846              1.272              0.683
 Vibration    28          0.859              1.242              0.650
 Vibration    29          0.892              1.169              0.573
 Vibration    30          0.909              1.132              0.537
 Vibration    31          0.926              1.097              0.505
 Vibration    32          0.943              1.062              0.475
 Vibration    33          0.956              1.036              0.453
 Vibration    34          0.972              1.004              0.428

 Normal termination of Gaussian 09 at Fri Nov 15 13:31:03 2019.
