 Gaussian 09, Revision E.01,

 ----------------------------------------------------------------------
 # M062X/6-311+G* SCF=Tight INT(grid=ultrafine) OPT IOP(2/17=4) Empiric
 alDispersion=GD3 SCRF=(SMD,Solvent=n-Pentadecane) maxdisk=2684354560
 ----------------------------------------------------------------------

 ---------------------------------------
 CP22.M062X_6-311pGd_opt_Pentadecane_GD3
 ---------------------------------------
 Symbolic Z-matrix:
 Charge =  0 Multiplicity = 1

 SCF Done:  E(RM062X) =  -1930.43209107     A.U. after   15 cycles
 Optimization completed.
    -- Stationary point found.
 Normal termination of Gaussian 09 at Thu Nov 14 09:40:15 2019.
 Gaussian 09:  ES64L-G09RevE.01 30-Nov-2015

 ----------------------------------------------------------------------
 # M062X/6-311+G* SCF=Tight INT(grid=ultrafine) SCRF=(SMD,Solvent=n-Pen
 tadecane)EmpiricalDispersion=GD3 Freq=Noraman maxdisk=2684354560 geom=
 check guess=read IOP(2/17=4)
 ----------------------------------------------------------------------

 ---------------------------------------
 CP22.M062X_6-311pGd_opt_Pentadecane_GD3
 ---------------------------------------
 Structure from the checkpoint file:  "CP22.M062X_6-311pGd_opt_Pentadecane_GD3.chk"
 Charge =  0 Multiplicity = 1

                         Standard orientation:
 ---------------------------------------------------------------------
 Center     Atomic      Atomic             Coordinates (Angstroms)
 Number     Number       Type             X           Y           Z
 ---------------------------------------------------------------------
      1          6           0       -0.478442    1.123622    0.043895
      2          7           0       -1.870202    1.153083    0.091909
      3          6           0       -2.742782    0.071174   -0.002000
      4          8           0       -2.372651   -1.074186   -0.166245
      5          7           0       -4.054958    0.428963    0.082865
      6          6           0       -5.092340   -0.594428    0.101083
      7          6           0       -6.463826    0.039640   -0.077720
      8          6           0       -7.569422   -1.009702   -0.063038
      9          6           0        0.270011   -0.059548    0.038867
     10          6           0        1.649683    0.046961    0.008238
     11          6           0        2.342014    1.246236   -0.017936
     12          6           0        1.568913    2.398496   -0.011725
     13          6           0        0.187038    2.355469    0.017583
     14          1           0       -2.283280    2.074754    0.091454
     15          1           0       -4.293411    1.333503    0.464306
     16          1           0       -5.052309   -1.164339    1.036484
     17          1           0       -4.886367   -1.294229   -0.710475
     18          1           0       -6.480408    0.593461   -1.021339
     19          1           0       -6.637127    0.768000    0.723161
     20          1           0       -7.431927   -1.736940   -0.867185
     21          1           0       -8.550964   -0.550886   -0.194768
     22          1           0       -7.582852   -1.558065    0.882302
     23          1           0       -0.225362   -1.017241    0.053203
     24         17           0        2.362333    3.947877   -0.043665
     25          1           0       -0.378432    3.280967    0.020212
     26         16           0        2.612287   -1.489235    0.003326
     27          1           0        3.421617    1.297386   -0.042418
     28          9           0        1.660351   -2.175936   -1.102525
     29          9           0        3.589810   -0.959141   -1.170884
     30          9           0        1.720716   -2.143078    1.179016
     31          9           0        3.650499   -0.926854    1.109046
     32          9           0        3.473826   -2.850644    0.000593
 ---------------------------------------------------------------------

 SCF Done:  E(RM062X) =  -1930.43209107     A.U. after    2 cycles

 The electronic state is 1-A.
 Alpha  occ. eigenvalues -- -102.69323 -90.28166 -25.28560 -25.28556 -25.28555
 Alpha  occ. eigenvalues --  -25.28553 -25.28414 -19.60256 -14.80457 -14.78035
 Alpha  occ. eigenvalues --  -10.69059 -10.63416 -10.63028 -10.61641 -10.58181
 Alpha  occ. eigenvalues --  -10.58028 -10.57623 -10.57528 -10.54453 -10.52974
 Alpha  occ. eigenvalues --   -9.83590  -8.60476  -7.56106  -7.55423  -7.55413
 Alpha  occ. eigenvalues --   -6.52902  -6.52892  -6.52450  -1.50445  -1.40357
 Alpha  occ. eigenvalues --   -1.40299  -1.37333  -1.35864  -1.19694  -1.08236
 Alpha  occ. eigenvalues --   -1.04711  -1.02129  -0.97764  -0.93378  -0.89527
 Alpha  occ. eigenvalues --   -0.87279  -0.85871  -0.79429  -0.76745  -0.74483
 Alpha  occ. eigenvalues --   -0.73841  -0.73343  -0.69680  -0.69383  -0.68226
 Alpha  occ. eigenvalues --   -0.65012  -0.64309  -0.62439  -0.61952  -0.61653
 Alpha  occ. eigenvalues --   -0.60087  -0.58408  -0.56975  -0.56319  -0.55665
 Alpha  occ. eigenvalues --   -0.55605  -0.55506  -0.55228  -0.54583  -0.53776
 Alpha  occ. eigenvalues --   -0.53141  -0.52683  -0.51686  -0.51679  -0.51533
 Alpha  occ. eigenvalues --   -0.50102  -0.49887  -0.48053  -0.47417  -0.46682
 Alpha  occ. eigenvalues --   -0.44915  -0.43528  -0.43280  -0.41284  -0.40615
 Alpha  occ. eigenvalues --   -0.39754  -0.39690  -0.36460  -0.33633  -0.33157
 Alpha  occ. eigenvalues --   -0.29562
 Alpha virt. eigenvalues --   -0.02446  -0.02001  -0.00705  -0.00383   0.01572
 Alpha virt. eigenvalues --    0.02068   0.02824   0.03108   0.03443   0.04211
 Alpha virt. eigenvalues --    0.04382   0.04811   0.05178   0.05524   0.05895

 Mulliken charges:
               1
     1  C   -1.318177
     2  N   -0.381403
     3  C    0.043679
     4  O   -0.354879
     5  N   -0.295610
     6  C   -0.526270
     7  C   -0.125158
     8  C   -1.037708
     9  C    0.022891
    10  C   -1.083737
    11  C   -0.051941
    12  C    0.256521
    13  C    0.103908
    14  H    0.377244
    15  H    0.357510
    16  H    0.270346
    17  H    0.273671
    18  H    0.266490
    19  H    0.241883
    20  H    0.267050
    21  H    0.273670
    22  H    0.264737
    23  H    0.351384
    24  Cl   0.412908
    25  H    0.276307
    26  S    0.522999
    27  H    0.331764
    28  F    0.071464
    29  F    0.051848
    30  F    0.069178
    31  F    0.047502
    32  F    0.019926
 Sum of Mulliken charges =  -0.00000

 Dipole moment (field-independent basis, Debye):
    X=             -7.6048    Y=              5.9807    Z=              0.8929  Tot=              9.7160
 Quadrupole moment (field-independent basis, Debye-Ang):
   XX=           -110.3925   YY=           -132.7508   ZZ=           -134.4012
   XY=             -5.3102   XZ=             -3.4690   YZ=              0.7648

  Exact polarizability: 251.057  15.534 209.871  -2.146   0.161 120.048
 Approx polarizability: 234.823   9.129 228.259  -2.563   1.117 144.260

                      1                      2                      3
                      A                      A                      A
 Frequencies --     19.1937                33.8539                39.7682
 Red. masses --      6.2290                 6.4457                 3.8195
 Frc consts  --      0.0014                 0.0044                 0.0036
 IR Inten    --      0.2763                 0.5932                 7.2372

                      4                      5                      6
                      A                      A                      A
 Frequencies --     46.3443                66.9652                79.1189
 Red. masses --      4.9933                 3.0950                 3.4943
 Frc consts  --      0.0063                 0.0082                 0.0129
 IR Inten    --      0.3941                 6.1934                 2.1287

                      7                      8                      9
                      A                      A                      A
 Frequencies --    105.5061               107.4114               146.4353
 Red. masses --      5.9846                 6.9942                 9.4909
 Frc consts  --      0.0393                 0.0475                 0.1199
 IR Inten    --      0.1934                 0.6994                 6.5042

                     10                     11                     12
                      A                      A                      A
 Frequencies --    182.2568               193.0311               194.1951
 Red. masses --      4.2623                 5.7816                 5.6217
 Frc consts  --      0.0834                 0.1269                 0.1249
 IR Inten    --      1.1616                 0.4205                 1.9444

                     13                     14                     15
                      A                      A                      A
 Frequencies --    235.8857               243.0939               248.9007
 Red. masses --      5.4517                 1.3824                 2.4280
 Frc consts  --      0.1787                 0.0481                 0.0886
 IR Inten    --      9.2400                 0.2948                 0.3704

                     16                     17                     18
                      A                      A                      A
 Frequencies --    270.7975               274.9641               315.9983
 Red. masses --      8.8241                 7.4249                 6.5438
 Frc consts  --      0.3812                 0.3307                 0.3850
 IR Inten    --      1.5318                 0.4353                 2.8438

                     19                     20                     21
                      A                      A                      A
 Frequencies --    328.4297               338.9111               352.0872
 Red. masses --      1.5192                18.8191                 2.6200
 Frc consts  --      0.0965                 1.2736                 0.1914
 IR Inten    --     95.5291                 0.0065                10.3804

                     22                     23                     24
                      A                      A                      A
 Frequencies --    388.1497               390.6856               447.4805
 Red. masses --     15.4810                11.7478                 6.6634
 Frc consts  --      1.3742                 1.0565                 0.7861
 IR Inten    --      5.3819                 1.9607                 0.2995

                     25                     26                     27
                      A                      A                      A
 Frequencies --    452.8653               458.2321               498.7292
 Red. masses --     14.5375                 4.9385                 6.1515
 Frc consts  --      1.7566                 0.6110                 0.9015
 IR Inten    --      0.6740                 8.9613                 6.7080

                     28                     29                     30
                      A                      A                      A
 Frequencies --    531.4412               538.6429               552.5078
 Red. masses --      1.6899                 3.7499                11.4469
 Frc consts  --      0.2812                 0.6410                 2.0588
 IR Inten    --     71.8953               100.4980                14.0591

                     31                     32                     33
                      A                      A                      A
 Frequencies --    567.3981               582.0991               594.2668
 Red. masses --      4.7086                18.3582                18.7233
 Frc consts  --      0.8931                 3.6650                 3.8958
 IR Inten    --      6.6606               114.8595                 0.2253

                     34                     35                     36
                      A                      A                      A
 Frequencies --    612.3553               644.6707               657.5820
 Red. masses --      5.2016                10.8746                 7.5563
 Frc consts  --      1.1492                 2.6628                 1.9251
 IR Inten    --      0.5006                59.6602                15.7564

                     37                     38                     39
                      A                      A                      A
 Frequencies --    690.3953               746.8175               758.0913
 Red. masses --      2.5526                10.9231                 1.2144
 Frc consts  --      0.7168                 3.5894                 0.4112
 IR Inten    --     22.2689               213.0516                 9.7496

                     40                     41                     42
                      A                      A                      A
 Frequencies --    776.4878               806.9485               848.3482
 Red. masses --      4.7092                 6.8119                19.5109
 Frc consts  --      1.6729                 2.6134                 8.2733
 IR Inten    --     10.2386                97.1932               404.1341

                     43                     44                     45
                      A                      A                      A
 Frequencies --    852.3772               869.3920               872.6706
 Red. masses --     20.3238                 1.4947                13.0137
 Frc consts  --      8.7000                 0.6656                 5.8392
 IR Inten    --    428.1323                89.9535               184.6835

                     46                     47                     48
                      A                      A                      A
 Frequencies --    892.8674               902.6106               912.4159
 Red. masses --      1.5200                 1.1833                 1.3516
 Frc consts  --      0.7140                 0.5680                 0.6630
 IR Inten    --     20.1549                 2.7855                 9.9841

                     49                     50                     51
                      A                      A                      A
 Frequencies --    927.1714               968.3129              1011.6558
 Red. masses --      1.8828                 5.0585                 5.9148
 Frc consts  --      0.9536                 2.7945                 3.5666
 IR Inten    --     35.0267                53.4108                15.5702

                     52                     53                     54
                      A                      A                      A
 Frequencies --   1049.7457              1080.5521              1150.1954
 Red. masses --      4.1639                 2.5801                 2.6099
 Frc consts  --      2.7034                 1.7749                 2.0343
 IR Inten    --     22.1519                25.3785                19.6450

                     55                     56                     57
                      A                      A                      A
 Frequencies --   1155.6609              1166.8989              1170.8799
 Red. masses --      1.7153                 2.7136                 1.6143
 Frc consts  --      1.3498                 2.1770                 1.3040
 IR Inten    --     34.4763                17.4620                44.2702

                     58                     59                     60
                      A                      A                      A
 Frequencies --   1182.7131              1239.5959              1282.5534
 Red. masses --      1.7730                 1.7919                 1.5888
 Frc consts  --      1.4612                 1.6223                 1.5398
 IR Inten    --      2.0987               370.3240                18.0715

                     61                     62                     63
                      A                      A                      A
 Frequencies --   1290.3329              1317.3008              1332.4633
 Red. masses --      1.6048                 1.8057                 1.1514
 Frc consts  --      1.5743                 1.8461                 1.2045
 IR Inten    --    132.3153                26.2678                30.7280

                     64                     65                     66
                      A                      A                      A
 Frequencies --   1347.0186              1358.3891              1422.9512
 Red. masses --      1.3082                 3.1216                 1.5101
 Frc consts  --      1.3985                 3.3937                 1.8015
 IR Inten    --      6.3338               108.2908                 1.0033

                     67                     68                     69
                      A                      A                      A
 Frequencies --   1430.7561              1459.5519              1503.5016
 Red. masses --      1.3137                 2.6356                 1.0616
 Frc consts  --      1.5844                 3.3080                 1.4139
 IR Inten    --      2.1822                72.7853                11.6068

                     70                     71                     72
                      A                      A                      A
 Frequencies --   1514.8925              1517.8054              1519.8546
 Red. masses --      3.2284                 1.0454                 1.0884
 Frc consts  --      4.3652                 1.4190                 1.4813
 IR Inten    --    422.4041                12.8048                 3.2289

                     73                     74                     75
                      A                      A                      A
 Frequencies --   1534.1627              1555.7028              1591.6838
 Red. masses --      1.0956                 1.8942                 2.1895
 Frc consts  --      1.5194                 2.7010                 3.2682
 IR Inten    --     10.5548               524.0745               580.3166

                     76                     77                     78
                      A                      A                      A
 Frequencies --   1660.2860              1677.4941              1803.2077
 Red. masses --      4.1960                 6.9568                 7.7492
 Frc consts  --      6.8148                11.5340                14.8457
 IR Inten    --    147.8655               181.6451               391.5518

                     79                     80                     81
                      A                      A                      A
 Frequencies --   3055.9041              3059.6455              3071.5961
 Red. masses --      1.0629                 1.0712                 1.0372
 Frc consts  --      5.8483                 5.9082                 5.7656
 IR Inten    --     14.8116                42.2118                34.5682

                     82                     83                     84
                      A                      A                      A
 Frequencies --   3098.7440              3134.0358              3142.3616
 Red. masses --      1.0973                 1.0984                 1.1022
 Frc consts  --      6.2077                 6.3565                 6.4122
 IR Inten    --     15.9552                 1.0056                58.1767

                     85                     86                     87
                      A                      A                      A
 Frequencies --   3148.1947              3229.6543              3264.1961
 Red. masses --      1.1022                 1.0920                 1.0938
 Frc consts  --      6.4361                 6.7109                 6.8666
 IR Inten    --     31.0146                 1.4172                13.3334

                     88                     89                     90
                      A                      A                      A
 Frequencies --   3294.4424              3638.8825              3651.8740
 Red. masses --      1.0923                 1.0778                 1.0771
 Frc consts  --      6.9848                 8.4087                 8.4631
 IR Inten    --     38.5233                39.3896                58.1112

 - Thermochemistry -
 -------------------
 Temperature   298.150 Kelvin.  Pressure   1.00000 Atm.
 Atom     1 has atomic number  6 and mass  12.00000

 Molecular mass:   338.02790 amu.
 Principal axes and moments of inertia in atomic units:
                           1         2         3
     Eigenvalues --  4787.53885********************
           X            0.99987   0.01587  -0.00025
           Y           -0.01587   0.99987   0.00076
           Z            0.00026  -0.00076   1.00000
 This molecule is an asymmetric top.
 Rotational symmetry number  1.
 Warning -- assumption of classical behavior for rotation
           may cause significant error
 Rotational temperatures (Kelvin)      0.01809     0.00639     0.00493
 Rotational constants (GHZ):           0.37697     0.13324     0.10264
 Zero-point vibrational energy     602215.1 (Joules/Mol)
                                  143.93286 (Kcal/Mol)
 Warning -- explicit consideration of  34 degrees of freedom as
           vibrations may cause significant error
 Vibrational temperatures:     27.62    48.71    57.22    66.68    96.35
          (Kelvin)            113.83   151.80   154.54   210.69   262.23
                              277.73   279.40   339.39   349.76   358.11
                              389.62   395.61   454.65   472.54   487.62
                              506.57   558.46   562.11   643.82   651.57
                              659.29   717.56   764.62   774.99   794.93
                              816.36   837.51   855.02   881.04   927.54
                              946.11   993.32  1074.50  1090.72  1117.19
                             1161.02  1220.58  1226.38  1250.86  1255.58
                             1284.64  1298.65  1312.76  1333.99  1393.18
                             1455.55  1510.35  1554.67  1654.87  1662.74
                             1678.91  1684.63  1701.66  1783.50  1845.31
                             1856.50  1895.30  1917.12  1938.06  1954.42
                             2047.31  2058.54  2099.97  2163.20  2179.59
                             2183.78  2186.73  2207.32  2238.31  2290.08
                             2388.78  2413.54  2594.41  4396.76  4402.14
                             4419.34  4458.40  4509.17  4521.15  4529.54
                             4646.75  4696.44  4739.96  5235.53  5254.23

 Zero-point correction=                           0.229372 (Hartree/Particle)
 Thermal correction to Energy=                    0.249450
 Thermal correction to Enthalpy=                  0.250394
 Thermal correction to Gibbs Free Energy=         0.178334
 Sum of electronic and zero-point Energies=          -1930.202719
 Sum of electronic and thermal Energies=             -1930.182641
 Sum of electronic and thermal Enthalpies=           -1930.181697
 Sum of electronic and thermal Free Energies=        -1930.253757

                     E (Thermal)             CV                S
                      KCal/Mol        Cal/Mol-Kelvin    Cal/Mol-Kelvin
 Total                  156.532             74.466            151.663
 Electronic               0.000              0.000              0.000
 Translational            0.889              2.981             43.349
 Rotational               0.889              2.981             35.388
 Vibrational            154.755             68.505             72.926
 Vibration     1          0.593              1.986              6.716
 Vibration     2          0.594              1.983              5.590
 Vibration     3          0.594              1.981              5.271
 Vibration     4          0.595              1.979              4.968
 Vibration     5          0.598              1.970              4.241
 Vibration     6          0.600              1.963              3.913
 Vibration     7          0.605              1.945              3.350
 Vibration     8          0.606              1.943              3.315
 Vibration     9          0.617              1.907              2.718
 Vibration    10          0.630              1.864              2.305
 Vibration    11          0.635              1.850              2.199
 Vibration    12          0.635              1.848              2.187
 Vibration    13          0.655              1.786              1.834
 Vibration    14          0.659              1.774              1.780
 Vibration    15          0.662              1.765              1.738
 Vibration    16          0.674              1.727              1.591
 Vibration    17          0.677              1.720              1.565
 Vibration    18          0.703              1.643              1.331
 Vibration    19          0.712              1.619              1.268
 Vibration    20          0.719              1.598              1.217
 Vibration    21          0.729              1.571              1.157
 Vibration    22          0.756              1.496              1.007
 Vibration    23          0.758              1.490              0.998
 Vibration    24          0.807              1.366              0.803
 Vibration    25          0.811              1.355              0.787
 Vibration    26          0.816              1.343              0.771
 Vibration    27          0.854              1.253              0.661
 Vibration    28          0.886              1.180              0.584
 Vibration    29          0.894              1.165              0.568
 Vibration    30          0.908              1.134              0.539
 Vibration    31          0.923              1.102              0.509
 Vibration    32          0.939              1.070              0.481
 Vibration    33          0.952              1.044              0.460
 Vibration    34          0.972              1.006              0.429

 Optimization completed.
    -- Stationary point found.
 Normal termination of Gaussian 09 at Thu Nov 14 11:12:12 2019.
