 Gaussian 09, Revision E.01,

 ----------------------------------------------------------------------
 # M062X/6-311+G* SCF=Tight INT(grid=ultrafine) OPT IOP(2/17=4) Empiric
 alDispersion=GD3 SCRF=(SMD,Solvent=n-Pentadecane) maxdisk=2684354560
 ----------------------------------------------------------------------

 ------------------------------------------
 CP22_c2.M062X_6-311pGd_opt_Pentadecane_GD3
 ------------------------------------------
 Symbolic Z-matrix:
 Charge =  0 Multiplicity = 1

 SCF Done:  E(RM062X) =  -1930.43240694     A.U. after   15 cycles
 Optimization completed.
    -- Stationary point found.
 Normal termination of Gaussian 09 at Thu Nov 14 09:40:01 2019.
 Gaussian 09:  ES64L-G09RevE.01 30-Nov-2015

 ----------------------------------------------------------------------
 # M062X/6-311+G* SCF=Tight INT(grid=ultrafine) SCRF=(SMD,Solvent=n-Pen
 tadecane)EmpiricalDispersion=GD3 Freq=Noraman maxdisk=2684354560 geom=
 check guess=read IOP(2/17=4)
 ----------------------------------------------------------------------

 ------------------------------------------
 CP22_c2.M062X_6-311pGd_opt_Pentadecane_GD3
 ------------------------------------------
 Structure from the checkpoint file:  "CP22_c2.M062X_6-311pGd_opt_Pentadecane_GD3.chk"
 Charge =  0 Multiplicity = 1

                         Standard orientation:
 ---------------------------------------------------------------------
 Center     Atomic      Atomic             Coordinates (Angstroms)
 Number     Number       Type             X           Y           Z
 ---------------------------------------------------------------------
      1          6           0        0.574406    0.226362   -0.046742
      2          7           0        1.807455   -0.420892   -0.088452
      3          6           0        3.070993    0.158945   -0.000635
      4          8           0        3.250360    1.349066    0.166687
      5          7           0        4.086602   -0.744663   -0.094480
      6          6           0        5.472143   -0.294033   -0.106832
      7          6           0        6.412437   -1.475226    0.083015
      8          6           0        7.871602   -1.034699    0.073323
      9          6           0       -0.567425   -0.585494   -0.030965
     10          6           0       -1.812692    0.009922   -0.006964
     11          6           0       -2.001631    1.382598    0.002738
     12          6           0       -0.851497    2.157902   -0.013994
     13          6           0        0.426016    1.617934   -0.038719
     14          1           0        1.765072   -1.430193   -0.084663
     15          1           0        3.898311   -1.659624   -0.479042
     16          1           0        5.596592    0.427550    0.702261
     17          1           0        5.697572    0.228815   -1.043475
     18          1           0        6.244200   -2.208284   -0.714691
     19          1           0        6.173414   -1.972451    1.028005
     20          1           0        8.134737   -0.555335   -0.873002
     21          1           0        8.541498   -1.885144    0.212067
     22          1           0        8.071800   -0.319711    0.875293
     23          1           0       -0.468327   -1.664350   -0.036926
     24         17           0       -1.019248    3.891094   -0.005513
     25          1           0        1.291877    2.261472   -0.045836
     26         16           0       -3.272872   -1.058423    0.013354
     27          1           0       -2.983783    1.834118    0.022502
     28          9           0       -2.632022   -2.042824    1.125385
     29          9           0       -3.978121   -0.198674    1.183044
     30          9           0       -2.685594   -2.011538   -1.154610
     31          9           0       -4.032717   -0.168401   -1.098385
     32          9           0       -4.571236   -2.010742    0.031146
 ---------------------------------------------------------------------

 SCF Done:  E(RM062X) =  -1930.43240694     A.U. after    2 cycles

 The electronic state is 1-A.
 Alpha  occ. eigenvalues -- -102.68779 -90.28754 -25.29152 -25.29149 -25.29145
 Alpha  occ. eigenvalues --  -25.29143 -25.28995 -19.60284 -14.80467 -14.78055
 Alpha  occ. eigenvalues --  -10.69099 -10.63134 -10.63037 -10.61955 -10.58485
 Alpha  occ. eigenvalues --  -10.58189 -10.57667 -10.57105 -10.54469 -10.53004
 Alpha  occ. eigenvalues --   -9.83047  -8.61064  -7.55563  -7.54882  -7.54867
 Alpha  occ. eigenvalues --   -6.53492  -6.53481  -6.53037  -1.51028  -1.40953
 Alpha  occ. eigenvalues --   -1.40870  -1.37922  -1.36458  -1.19704  -1.08237
 Alpha  occ. eigenvalues --   -1.04722  -1.02013  -0.97861  -0.93574  -0.89557
 Alpha  occ. eigenvalues --   -0.87234  -0.86009  -0.79485  -0.76945  -0.74814
 Alpha  occ. eigenvalues --   -0.74440  -0.73109  -0.70896  -0.69697  -0.67065
 Alpha  occ. eigenvalues --   -0.65529  -0.64835  -0.63013  -0.62481  -0.61657
 Alpha  occ. eigenvalues --   -0.60033  -0.59010  -0.57057  -0.56372  -0.56204
 Alpha  occ. eigenvalues --   -0.56096  -0.56072  -0.55810  -0.54733  -0.53810
 Alpha  occ. eigenvalues --   -0.53222  -0.53159  -0.52292  -0.52090  -0.51802
 Alpha  occ. eigenvalues --   -0.50051  -0.49807  -0.48051  -0.47454  -0.46663
 Alpha  occ. eigenvalues --   -0.45045  -0.43528  -0.43308  -0.41325  -0.40635
 Alpha  occ. eigenvalues --   -0.39546  -0.39192  -0.36472  -0.33886  -0.32788
 Alpha  occ. eigenvalues --   -0.29579
 Alpha virt. eigenvalues --   -0.02668  -0.02327  -0.00674  -0.00323   0.01786
 Alpha virt. eigenvalues --    0.01951   0.02846   0.03224   0.03587   0.04157
 Alpha virt. eigenvalues --    0.04354   0.04792   0.04884   0.05294   0.05885

 Mulliken charges:
               1
     1  C   -0.942523
     2  N   -0.391975
     3  C    0.117829
     4  O   -0.359822
     5  N   -0.298227
     6  C   -0.538946
     7  C   -0.132455
     8  C   -1.032600
     9  C    0.302002
    10  C   -1.855332
    11  C    0.270446
    12  C    0.521213
    13  C   -0.438440
    14  H    0.378665
    15  H    0.357101
    16  H    0.273655
    17  H    0.270102
    18  H    0.242995
    19  H    0.267203
    20  H    0.264618
    21  H    0.273963
    22  H    0.266603
    23  H    0.285638
    24  Cl   0.425334
    25  H    0.339235
    26  S    0.552536
    27  H    0.335089
    28  F    0.060894
    29  F    0.053288
    30  F    0.060031
    31  F    0.054005
    32  F    0.017875
 Sum of Mulliken charges =  -0.00000

 Dipole moment (field-independent basis, Debye):
    X=              6.2519    Y=             -3.6808    Z=             -0.9219  Tot=              7.3133
 Quadrupole moment (field-independent basis, Debye-Ang):
   XX=           -124.9498   YY=           -133.0423   ZZ=           -134.3928
   XY=            -21.6844   XZ=             -3.2918   YZ=              0.8844

  Exact polarizability: 250.339 -11.085 210.747  -1.260   1.514 120.318
 Approx polarizability: 228.078  -8.482 235.658  -1.172   2.646 144.292

                      1                      2                      3
                      A                      A                      A
 Frequencies --     12.4976                28.0105                30.9534
 Red. masses --      6.4372                 3.4792                 7.7140
 Frc consts  --      0.0006                 0.0016                 0.0044
 IR Inten    --      1.1725                 9.7658                 0.5380

                      4                      5                      6
                      A                      A                      A
 Frequencies --     48.9183                56.3126                75.3761
 Red. masses --      4.8844                 3.4838                 2.8188
 Frc consts  --      0.0069                 0.0065                 0.0094
 IR Inten    --      1.1030                 5.1733                 2.6719

                      7                      8                      9
                      A                      A                      A
 Frequencies --     99.2889               112.3217               140.5537
 Red. masses --      6.8295                 7.2388                 8.2466
 Frc consts  --      0.0397                 0.0538                 0.0960
 IR Inten    --      0.1716                 4.9158                 4.6841

                     10                     11                     12
                      A                      A                      A
 Frequencies --    183.7103               191.1747               194.5145
 Red. masses --      3.5040                 5.3937                 6.8220
 Frc consts  --      0.0697                 0.1161                 0.1521
 IR Inten    --      1.7336                 1.0409                 0.7574

                     13                     14                     15
                      A                      A                      A
 Frequencies --    219.0203               236.0884               242.7279
 Red. masses --      7.3127                 2.8582                 1.1983
 Frc consts  --      0.2067                 0.0939                 0.0416
 IR Inten    --      4.2744                 1.1411                 0.2362

                     16                     17                     18
                      A                      A                      A
 Frequencies --    266.7759               272.0718               320.1822
 Red. masses --      5.3796                 7.5798                 1.3588
 Frc consts  --      0.2256                 0.3306                 0.0821
 IR Inten    --      6.3612                 0.1332                66.9865

                     19                     20                     21
                      A                      A                      A
 Frequencies --    324.6952               337.7036               360.3592
 Red. masses --      5.1150                18.7952                 5.6843
 Frc consts  --      0.3177                 1.2629                 0.4349
 IR Inten    --      0.0310                 0.0679                28.1020

                     22                     23                     24
                      A                      A                      A
 Frequencies --    386.1669               388.5144               432.2410
 Red. masses --     13.0212                11.4373                 7.5822
 Frc consts  --      1.1441                 1.0172                 0.8346
 IR Inten    --      4.4404                 2.8958                 3.1449

                     25                     26                     27
                      A                      A                      A
 Frequencies --    451.9766               467.4647               483.2009
 Red. masses --     18.7653                 2.0061                 2.0957
 Frc consts  --      2.2586                 0.2583                 0.2883
 IR Inten    --      0.0226                66.2910                78.5297

                     28                     29                     30
                      A                      A                      A
 Frequencies --    493.3784               535.2284               551.9932
 Red. masses --      4.4271                15.2252                13.5182
 Frc consts  --      0.6349                 2.5698                 2.4268
 IR Inten    --     28.4780                11.8781                13.1157

                     31                     32                     33
                      A                      A                      A
 Frequencies --    569.0891               580.9087               592.8887
 Red. masses --      5.4350                18.2592                18.8805
 Frc consts  --      1.0371                 3.6303                 3.9103
 IR Inten    --      2.8602               119.0593                 0.3041

                     34                     35                     36
                      A                      A                      A
 Frequencies --    611.6398               641.6855               659.2309
 Red. masses --      5.9226                10.5343                 7.7567
 Frc consts  --      1.3054                 2.5557                 1.9861
 IR Inten    --      4.5662                51.9329                20.1094

                     37                     38                     39
                      A                      A                      A
 Frequencies --    688.4410               752.4560               757.9974
 Red. masses --      2.4333                11.1865                 1.2042
 Frc consts  --      0.6795                 3.7317                 0.4077
 IR Inten    --     24.3380               266.6347                13.5762

                     40                     41                     42
                      A                      A                      A
 Frequencies --    776.4701               797.6613               846.2937
 Red. masses --      5.1163                 6.4601                16.5643
 Frc consts  --      1.8174                 2.4217                 6.9898
 IR Inten    --      9.0273                28.7229               390.6164

                     43                     44                     45
                      A                      A                      A
 Frequencies --    853.8027               862.8337               876.3777
 Red. masses --     22.7655                 1.5119                11.4471
 Frc consts  --      9.7778                 0.6632                 5.1800
 IR Inten    --    409.4588               100.3530               332.8326

                     46                     47                     48
                      A                      A                      A
 Frequencies --    877.9660               903.7998               925.7486
 Red. masses --      1.5326                 1.1917                 1.8965
 Frc consts  --      0.6961                 0.5735                 0.9576
 IR Inten    --     30.0931                 5.3637                 4.4039

                     49                     50                     51
                      A                      A                      A
 Frequencies --    935.0319               967.9401              1011.1903
 Red. masses --      1.3835                 4.7138                 5.9199
 Frc consts  --      0.7127                 2.6021                 3.5664
 IR Inten    --     13.7092                59.0726                 8.4480

                     52                     53                     54
                      A                      A                      A
 Frequencies --   1050.0810              1081.0438              1147.6287
 Red. masses --      4.1882                 2.5906                 2.1699
 Frc consts  --      2.7210                 1.7838                 1.6838
 IR Inten    --      0.7128                 3.2417                 9.6579

                     55                     56                     57
                      A                      A                      A
 Frequencies --   1155.2997              1165.7411              1172.1083
 Red. masses --      1.8318                 2.6211                 1.7753
 Frc consts  --      1.4405                 2.0987                 1.4370
 IR Inten    --     40.8683                22.7922                15.3236

                     58                     59                     60
                      A                      A                      A
 Frequencies --   1182.7734              1245.9678              1285.1218
 Red. masses --      1.7845                 1.7833                 1.3868
 Frc consts  --      1.4709                 1.6312                 1.3494
 IR Inten    --      3.3985               426.6907                26.2004

                     61                     62                     63
                      A                      A                      A
 Frequencies --   1293.6054              1317.3435              1332.4560
 Red. masses --      1.7910                 2.2096                 1.1650
 Frc consts  --      1.7658                 2.2593                 1.2186
 IR Inten    --    101.6571                61.2183                30.6645

                     64                     65                     66
                      A                      A                      A
 Frequencies --   1350.3089              1356.6666              1424.4241
 Red. masses --      1.2965                 2.6090                 1.4971
 Frc consts  --      1.3929                 2.8292                 1.7897
 IR Inten    --      6.2115                81.1260                 0.9377

                     67                     68                     69
                      A                      A                      A
 Frequencies --   1430.9853              1466.1110              1502.5061
 Red. masses --      1.3238                 2.9371                 1.0616
 Frc consts  --      1.5972                 3.7196                 1.4121
 IR Inten    --      2.3399                77.2348                 9.0494

                     70                     71                     72
                      A                      A                      A
 Frequencies --   1516.1192              1517.2498              1519.1184
 Red. masses --      2.8463                 1.0564                 1.1228
 Frc consts  --      3.8548                 1.4329                 1.5266
 IR Inten    --    322.0523                14.6461                15.0338

                     73                     74                     75
                      A                      A                      A
 Frequencies --   1533.1531              1563.9108              1594.7995
 Red. masses --      1.0919                 1.8324                 2.1773
 Frc consts  --      1.5122                 2.6406                 3.2627
 IR Inten    --     11.7410               481.6501               697.4543

                     76                     77                     78
                      A                      A                      A
 Frequencies --   1658.2061              1681.0070              1801.6316
 Red. masses --      4.1005                 5.8641                 7.4838
 Frc consts  --      6.6430                 9.7632                14.3122
 IR Inten    --    239.0254                73.5412               389.2893

                     79                     80                     81
                      A                      A                      A
 Frequencies --   3054.7454              3059.0755              3071.1772
 Red. masses --      1.0634                 1.0714                 1.0372
 Frc consts  --      5.8465                 5.9073                 5.7639
 IR Inten    --     18.2606                38.8251                34.6604

                     82                     83                     84
                      A                      A                      A
 Frequencies --   3099.4651              3134.1954              3142.2700
 Red. masses --      1.0966                 1.0986                 1.1019
 Frc consts  --      6.2070                 6.3583                 6.4101
 IR Inten    --     15.5069                 1.3544                57.8443

                     85                     86                     87
                      A                      A                      A
 Frequencies --   3147.3334              3233.5658              3260.8984
 Red. masses --      1.1022                 1.0922                 1.0941
 Frc consts  --      6.4327                 6.7287                 6.8546
 IR Inten    --     30.8037                 5.1433                15.1387

                     88                     89                     90
                      A                      A                      A
 Frequencies --   3285.2556              3632.6831              3644.4547
 Red. masses --      1.0927                 1.0780                 1.0773
 Frc consts  --      6.9487                 8.3816                 8.4307
 IR Inten    --     25.5753                 7.0451                91.8525

 - Thermochemistry -
 -------------------
 Temperature   298.150 Kelvin.  Pressure   1.00000 Atm.
 Atom     1 has atomic number  6 and mass  12.00000

 Molecular mass:   338.02790 amu.
 Principal axes and moments of inertia in atomic units:
                           1         2         3
     Eigenvalues --  4023.13778********************
           X            0.99974  -0.02273  -0.00008
           Y            0.02273   0.99974   0.00049
           Z            0.00007  -0.00049   1.00000
 This molecule is an asymmetric top.
 Rotational symmetry number  1.
 Warning -- assumption of classical behavior for rotation
           may cause significant error
 Rotational temperatures (Kelvin)      0.02153     0.00553     0.00457
 Rotational constants (GHZ):           0.44859     0.11518     0.09528
 Zero-point vibrational energy     601382.9 (Joules/Mol)
                                  143.73395 (Kcal/Mol)
 Warning -- explicit consideration of  34 degrees of freedom as
           vibrations may cause significant error
 Vibrational temperatures:     17.98    40.30    44.53    70.38    81.02
          (Kelvin)            108.45   142.85   161.61   202.23   264.32
                              275.06   279.86   315.12   339.68   349.23
                              383.83   391.45   460.67   467.16   485.88
                              518.48   555.61   558.98   621.90   650.29
                              672.58   695.22   709.86   770.07   794.19
                              818.79   835.80   853.03   880.01   923.24
                              948.49   990.51  1082.61  1090.59  1117.17
                             1147.66  1217.63  1228.43  1241.42  1260.91
                             1263.20  1300.36  1331.94  1345.30  1392.65
                             1454.88  1510.83  1555.38  1651.18  1662.22
                             1677.24  1686.40  1701.75  1792.67  1849.00
                             1861.21  1895.36  1917.10  1942.79  1951.94
                             2049.43  2058.87  2109.40  2161.77  2181.35
                             2182.98  2185.67  2205.86  2250.12  2294.56
                             2385.79  2418.59  2592.14  4395.09  4401.32
                             4418.73  4459.43  4509.40  4521.02  4528.31
                             4652.37  4691.70  4726.74  5226.61  5243.55

 Zero-point correction=                           0.229055 (Hartree/Particle)
 Thermal correction to Energy=                    0.249315
 Thermal correction to Enthalpy=                  0.250260
 Thermal correction to Gibbs Free Energy=         0.176947
 Sum of electronic and zero-point Energies=          -1930.203352
 Sum of electronic and thermal Energies=             -1930.183091
 Sum of electronic and thermal Enthalpies=           -1930.182147
 Sum of electronic and thermal Free Energies=        -1930.255460

                     E (Thermal)             CV                S
                      KCal/Mol        Cal/Mol-Kelvin    Cal/Mol-Kelvin
 Total                  156.448             74.683            154.300
 Electronic               0.000              0.000              0.000
 Translational            0.889              2.981             43.349
 Rotational               0.889              2.981             35.433
 Vibrational            154.670             68.722             75.518
 Vibration     1          0.593              1.987              7.568
 Vibration     2          0.593              1.984              5.966
 Vibration     3          0.594              1.984              5.767
 Vibration     4          0.595              1.978              4.861
 Vibration     5          0.596              1.975              4.582
 Vibration     6          0.599              1.965              4.008
 Vibration     7          0.604              1.950              3.468
 Vibration     8          0.607              1.939              3.228
 Vibration     9          0.615              1.913              2.796
 Vibration    10          0.631              1.862              2.290
 Vibration    11          0.634              1.852              2.216
 Vibration    12          0.635              1.848              2.184
 Vibration    13          0.647              1.812              1.967
 Vibration    14          0.655              1.786              1.832
 Vibration    15          0.659              1.775              1.783
 Vibration    16          0.672              1.734              1.617
 Vibration    17          0.675              1.725              1.583
 Vibration    18          0.706              1.635              1.309
 Vibration    19          0.709              1.626              1.286
 Vibration    20          0.718              1.600              1.223
 Vibration    21          0.735              1.554              1.121
 Vibration    22          0.755              1.500              1.015
 Vibration    23          0.757              1.495              1.006
 Vibration    24          0.793              1.400              0.851
 Vibration    25          0.811              1.357              0.790
 Vibration    26          0.825              1.322              0.745
 Vibration    27          0.839              1.287              0.701
 Vibration    28          0.849              1.265              0.675
 Vibration    29          0.890              1.172              0.576
 Vibration    30          0.907              1.135              0.540
 Vibration    31          0.925              1.098              0.506
 Vibration    32          0.938              1.073              0.484
 Vibration    33          0.950              1.047              0.462
 Vibration    34          0.971              1.007              0.430

 Optimization completed.
    -- Stationary point found.
 Normal termination of Gaussian 09 at Thu Nov 14 11:12:24 2019.
