 Gaussian 16, Revision C.01,
 Gaussian 16:  ES64L-G16RevC.01  3-Jul-2019

 ---------------------------------------------------------------------
 # DSDPBEP86/AUG-cc-PVTZ SCF=Tight INT(grid=ultrafine) MaxDisk=60000MB
 ---------------------------------------------------------------------

 --------------------------
 CP22.DSDPBEP86_AUG-cc-PVTZ
 --------------------------
 Symbolic Z-matrix:
 Charge =  0 Multiplicity = 1

                         Standard orientation:
 ---------------------------------------------------------------------
 Center     Atomic      Atomic             Coordinates (Angstroms)
 Number     Number       Type             X           Y           Z
 ---------------------------------------------------------------------
      1          6           0       -0.468079    1.140956    0.047375
      2          7           0       -1.863024    1.182483    0.104861
      3          6           0       -2.739656    0.106592   -0.033164
      4          8           0       -2.379969   -1.027921   -0.253787
      5          7           0       -4.057207    0.468551    0.076591
      6          6           0       -5.076327   -0.574587    0.063365
      7          6           0       -6.465507    0.040248   -0.018764
      8          6           0       -7.549854   -1.032445   -0.044686
      9          6           0        0.265400   -0.050745    0.044039
     10          6           0        1.646151    0.038953    0.012303
     11          6           0        2.348687    1.232420   -0.016836
     12          6           0        1.591942    2.394837   -0.012779
     13          6           0        0.208798    2.364763    0.017805
     14          1           0       -2.269135    2.105534    0.076636
     15          1           0       -4.281356    1.308530    0.590429
     16          1           0       -4.987311   -1.211129    0.951446
     17          1           0       -4.885667   -1.210207   -0.802737
     18          1           0       -6.527119    0.663863   -0.915522
     19          1           0       -6.626174    0.702568    0.840281
     20          1           0       -7.427669   -1.691861   -0.907060
     21          1           0       -8.544390   -0.588125   -0.103655
     22          1           0       -7.514297   -1.651792    0.854656
     23          1           0       -0.239552   -1.003494    0.056777
     24         17           0        2.399872    3.933760   -0.048822
     25          1           0       -0.342114    3.298903    0.019651
     26         16           0        2.595347   -1.506596    0.009786
     27          1           0        3.428500    1.268528   -0.042470
     28          9           0        1.636836   -2.177736   -1.097561
     29          9           0        3.576293   -0.977919   -1.160870
     30          9           0        1.691312   -2.145322    1.182673
     31          9           0        3.631032   -0.945838    1.117505
     32          9           0        3.442855   -2.870911    0.009713
 ---------------------------------------------------------------------

 SCF Done:  E(RDSDPBEP86) =  -1926.75193384     A.U. after   14 cycles
 E2(DSDPBEP86) =    -0.1997316382D+01 E(DSDPBEP86) =    -0.19287492502267D+04

 The electronic state is 1-A.
 Alpha  occ. eigenvalues -- -103.58742 -91.16361 -25.70899 -25.70895 -25.70891
 Alpha  occ. eigenvalues --  -25.70884 -25.70777 -19.98554 -15.14253 -15.11927
 Alpha  occ. eigenvalues --  -10.97939 -10.91441 -10.91040 -10.89103 -10.86172
 Alpha  occ. eigenvalues --  -10.85950 -10.85795 -10.85103 -10.83244 -10.81832
 Alpha  occ. eigenvalues --  -10.16237  -8.90850  -7.73919  -7.73441  -7.73429
 Alpha  occ. eigenvalues --   -6.69957  -6.69945  -6.69548  -1.59157  -1.49547
 Alpha  occ. eigenvalues --   -1.49490  -1.46579  -1.45171  -1.29565  -1.17204
 Alpha  occ. eigenvalues --   -1.13506  -1.10133  -1.04706  -0.99413  -0.97129
 Alpha  occ. eigenvalues --   -0.93812  -0.92485  -0.86089  -0.81217  -0.79925
 Alpha  occ. eigenvalues --   -0.76964  -0.76942  -0.75446  -0.73627  -0.73418
 Alpha  occ. eigenvalues --   -0.69613  -0.68107  -0.66156  -0.65843  -0.65510
 Alpha  occ. eigenvalues --   -0.64304  -0.61336  -0.61153  -0.60431  -0.59338
 Alpha  occ. eigenvalues --   -0.59075  -0.58909  -0.58776  -0.58558  -0.57307
 Alpha  occ. eigenvalues --   -0.56708  -0.56044  -0.55666  -0.54986  -0.54868
 Alpha  occ. eigenvalues --   -0.53323  -0.52996  -0.51667  -0.50661  -0.50276
 Alpha  occ. eigenvalues --   -0.47673  -0.47194  -0.46042  -0.44957  -0.44276
 Alpha  occ. eigenvalues --   -0.42215  -0.41784  -0.40001  -0.36815  -0.33950
 Alpha  occ. eigenvalues --   -0.30654
 Alpha virt. eigenvalues --   -0.00019   0.01424   0.01810   0.02368   0.02437
 Alpha virt. eigenvalues --    0.03076   0.03233   0.04046   0.04400   0.04490
 Alpha virt. eigenvalues --    0.04692   0.05055   0.05370   0.06509   0.06610

 Mulliken charges:
               1
     1  C    0.439226
     2  N   -0.382103
     3  C    0.156147
     4  O   -0.794185
     5  N   -0.101546
     6  C   -0.132470
     7  C   -0.412468
     8  C   -0.980312
     9  C   -0.766542
    10  C    0.962965
    11  C   -0.834662
    12  C    0.487649
    13  C   -0.710195
    14  H    0.016427
    15  H    0.054021
    16  H    0.285711
    17  H    0.309600
    18  H    0.252014
    19  H    0.232400
    20  H    0.277742
    21  H    0.277952
    22  H    0.275891
    23  H    0.643252
    24  Cl  -0.419669
    25  H    0.497185
    26  S    2.715607
    27  H    0.522247
    28  F   -0.582789
    29  F   -0.588476
    30  F   -0.587568
    31  F   -0.588268
    32  F   -0.524784
 Sum of Mulliken charges =  -0.00000

 Dipole moment (field-independent basis, Debye):
    X=             -6.3298    Y=              4.6618    Z=              0.9555  Tot=              7.9191
 Quadrupole moment (field-independent basis, Debye-Ang):
   XX=           -111.5666   YY=           -132.0450   ZZ=           -132.0970
   XY=             -4.7765   XZ=             -3.6980   YZ=              0.5876

 Normal termination of Gaussian 16 at Wed Sep  9 21:39:37 2020.
