 Gaussian 16, Revision C.01,
 Gaussian 16:  ES64L-G16RevC.01  3-Jul-2019

 ---------------------------------------------------------------------
 # DSDPBEP86/AUG-cc-PVTZ SCF=Tight INT(grid=ultrafine) MaxDisk=60000MB
 ---------------------------------------------------------------------

 -----------------------------
 CP22_c2.DSDPBEP86_AUG-cc-PVTZ
 -----------------------------
 Symbolic Z-matrix:
 Charge =  0 Multiplicity = 1

                         Standard orientation:
 ---------------------------------------------------------------------
 Center     Atomic      Atomic             Coordinates (Angstroms)
 Number     Number       Type             X           Y           Z
 ---------------------------------------------------------------------
      1          6           0       -0.570594    0.213779   -0.044558
      2          7           0       -1.803515   -0.441491   -0.085774
      3          6           0       -3.067346    0.136140    0.021984
      4          8           0       -3.251877    1.319417    0.202685
      5          7           0       -4.085454   -0.776384   -0.067694
      6          6           0       -5.463676   -0.301089   -0.080100
      7          6           0       -6.429522   -1.469688    0.048680
      8          6           0       -7.880280   -0.998352    0.046541
      9          6           0        0.574573   -0.590638   -0.028006
     10          6           0        1.817901    0.009758   -0.008141
     11          6           0        1.993744    1.383533   -0.004110
     12          6           0        0.840124    2.154537   -0.021143
     13          6           0       -0.434160    1.605727   -0.041477
     14          1           0       -1.758265   -1.448416   -0.042248
     15          1           0       -3.906978   -1.652111   -0.537667
     16          1           0       -5.666651    0.268672   -0.994479
     17          1           0       -5.581896    0.388898    0.756828
     18          1           0       -6.208609   -2.014443    0.971315
     19          1           0       -6.271070   -2.170651   -0.779515
     20          1           0       -8.071629   -0.315862    0.877852
     21          1           0       -8.569126   -1.838922    0.140911
     22          1           0       -8.123029   -0.470917   -0.878980
     23          1           0        0.486768   -1.670136   -0.031895
     24         17           0        0.998658    3.885460   -0.017379
     25          1           0       -1.304593    2.243158   -0.046128
     26         16           0        3.284817   -1.050560    0.012799
     27          1           0        2.972933    1.840785    0.012218
     28          9           0        2.690790   -2.010934   -1.145117
     29          9           0        4.028289   -0.160273   -1.108065
     30          9           0        2.647833   -2.026417    1.133850
     31          9           0        3.984679   -0.175115    1.172436
     32          9           0        4.584087   -1.993524    0.031033
 ---------------------------------------------------------------------

 SCF Done:  E(RDSDPBEP86) =  -1926.75253512     A.U. after   13 cycles
 E2(DSDPBEP86) =    -0.1997243069D+01 E(DSDPBEP86) =    -0.19287497781883D+04

 The electronic state is 1-A.
 Alpha  occ. eigenvalues -- -103.58067 -91.17113 -25.71661 -25.71658 -25.71651
 Alpha  occ. eigenvalues --  -25.71647 -25.71528 -19.98570 -15.14269 -15.11959
 Alpha  occ. eigenvalues --  -10.97980 -10.91094 -10.91049 -10.89492 -10.86235
 Alpha  occ. eigenvalues --  -10.86217 -10.85831 -10.84839 -10.83279 -10.81877
 Alpha  occ. eigenvalues --  -10.15565  -8.91604  -7.73246  -7.72770  -7.72753
 Alpha  occ. eigenvalues --   -6.70712  -6.70700  -6.70298  -1.59896  -1.50306
 Alpha  occ. eigenvalues --   -1.50223  -1.47329  -1.45933  -1.29562  -1.17226
 Alpha  occ. eigenvalues --   -1.13530  -1.09966  -1.04747  -0.99626  -0.97215
 Alpha  occ. eigenvalues --   -0.93881  -0.92611  -0.86153  -0.81716  -0.79316
 Alpha  occ. eigenvalues --   -0.77706  -0.77475  -0.75814  -0.75446  -0.71989
 Alpha  occ. eigenvalues --   -0.70016  -0.68792  -0.66897  -0.66596  -0.65463
 Alpha  occ. eigenvalues --   -0.64261  -0.61924  -0.61431  -0.60462  -0.60107
 Alpha  occ. eigenvalues --   -0.59825  -0.59524  -0.59486  -0.58775  -0.57384
 Alpha  occ. eigenvalues --   -0.56742  -0.56669  -0.56161  -0.55767  -0.55300
 Alpha  occ. eigenvalues --   -0.53254  -0.52973  -0.51622  -0.50689  -0.50209
 Alpha  occ. eigenvalues --   -0.47921  -0.47254  -0.45993  -0.45004  -0.44328
 Alpha  occ. eigenvalues --   -0.41656  -0.41530  -0.40000  -0.36893  -0.33679
 Alpha  occ. eigenvalues --   -0.30696
 Alpha virt. eigenvalues --    0.00123   0.01457   0.02079   0.02321   0.02399
 Alpha virt. eigenvalues --    0.03023   0.03340   0.03777   0.04354   0.04503
 Alpha virt. eigenvalues --    0.04704   0.05005   0.05857   0.05934   0.06488

 Mulliken charges:
               1
     1  C    0.560023
     2  N   -0.331081
     3  C    0.148052
     4  O   -0.784782
     5  N   -0.148748
     6  C   -0.130615
     7  C   -0.412443
     8  C   -0.981686
     9  C   -0.911487
    10  C    0.792290
    11  C   -0.708276
    12  C    0.459052
    13  C   -0.654031
    14  H    0.017568
    15  H    0.045702
    16  H    0.286974
    17  H    0.309477
    18  H    0.251301
    19  H    0.237401
    20  H    0.277406
    21  H    0.277168
    22  H    0.274270
    23  H    0.427868
    24  Cl  -0.405420
    25  H    0.719119
    26  S    2.754646
    27  H    0.503029
    28  F   -0.591630
    29  F   -0.583717
    30  F   -0.591450
    31  F   -0.583831
    32  F   -0.522148
 Sum of Mulliken charges =  -0.00000

 Dipole moment (field-independent basis, Debye):
    X=             -5.1501    Y=             -3.2872    Z=             -0.8619  Tot=              6.1703
 Quadrupole moment (field-independent basis, Debye-Ang):
   XX=           -123.3067   YY=           -131.9918   ZZ=           -132.1416
   XY=             18.2703   XZ=              3.2049   YZ=              0.7206

 Normal termination of Gaussian 16 at Wed Sep  9 22:04:06 2020.
