 Gaussian 09, Revision E.01,

 ----------------------------------------------------------------------
 # M062X/6-311+G* SCF=Tight INT(grid=ultrafine) OPT IOP(2/17=4) Empiric
 alDispersion=GD3 SCRF=(SMD,Solvent=n-Pentadecane) maxdisk=2684354560
 ----------------------------------------------------------------------

 -----------------------------------------------
 CP19_carboxy.M062X_6-311pGd_opt_Pentadecane_GD3
 -----------------------------------------------
 Symbolic Z-matrix:
 Charge = -1 Multiplicity = 1

 SCF Done:  E(RM062X) =  -1638.71742877     A.U. after   17 cycles
 Optimization completed.
    -- Stationary point found.
 Normal termination of Gaussian 09 at Thu Nov 14 21:53:57 2019.
 Gaussian 09:  ES64L-G09RevE.01 30-Nov-2015

 ----------------------------------------------------------------------
 # M062X/6-311+G* SCF=Tight INT(grid=ultrafine) SCRF=(SMD,Solvent=n-Pen
 tadecane) EmpiricalDispersion=GD3 Freq=Noraman maxdisk=2684354560 geom
 =check guess=read IOP(2/17=4)
 ----------------------------------------------------------------------

 -----------------------------------------------
 CP19_carboxy.M062X_6-311pGd_opt_Pentadecane_GD3
 -----------------------------------------------
 Structure from the checkpoint file:  "CP19_carboxy.M062X_6-311pGd_opt_Pentadecane_GD3.chk"
 Charge = -1 Multiplicity = 1

                         Standard orientation:
 ---------------------------------------------------------------------
 Center     Atomic      Atomic             Coordinates (Angstroms)
 Number     Number       Type             X           Y           Z
 ---------------------------------------------------------------------
      1          6           0        0.618968   -0.092543   -0.003856
      2          7           0       -0.743921   -0.271621   -0.008605
      3          6           0       -1.437893   -1.476082   -0.044792
      4          8           0       -0.893533   -2.575277   -0.086346
      5          7           0       -2.778322   -1.308744   -0.023152
      6          6           0       -3.662237   -2.453673   -0.098672
      7          6           0       -5.094914   -2.026673    0.191703
      8          6           0       -6.060427   -3.202620    0.099126
      9          6           0        1.563127   -1.135223   -0.023774
     10          6           0        2.912475   -0.830390   -0.013607
     11          6           0        3.384672    0.481669    0.016106
     12          6           0        2.437122    1.508879    0.035847
     13          6           0        1.085429    1.237553    0.026418
     14          1           0       -1.300077    0.605942    0.014748
     15          1           0       -3.195294   -0.366899   -0.050076
     16          1           0       -3.336641   -3.210462    0.621941
     17          1           0       -3.602791   -2.920938   -1.090498
     18          1           0       -5.386482   -1.238746   -0.508933
     19          1           0       -5.135629   -1.577990    1.188970
     20          1           0       -6.052118   -3.643977   -0.901675
     21          1           0       -7.085576   -2.893220    0.315264
     22          1           0       -5.794780   -3.990895    0.809630
     23          1           0        1.235609   -2.162803   -0.047042
     24         17           0        4.036016   -2.173495   -0.038117
     25          6           0        4.843420    0.803219    0.027725
     26          1           0        2.771467    2.538791    0.059180
     27          1           0        0.358728    2.042662    0.041968
     28          9           0        5.062069    2.130438    0.054968
     29          9           0        5.488883    0.296748    1.096670
     30          9           0        5.497132    0.339930   -1.055613
     31          8           0       -2.014274    2.182602    0.041976
     32          8           0       -4.033532    1.237909   -0.098945
     33          6           0       -3.271408    2.226431   -0.022454
     34          6           0       -3.893085    3.628411   -0.006254
     35          6           0       -5.413492    3.648713   -0.044605
     36          1           0       -3.472566    4.174325   -0.856968
     37          1           0       -3.514937    4.137775    0.885680
     38          1           0       -5.788893    3.153356   -0.941823
     39          1           0       -5.795723    4.673856   -0.033922
     40          1           0       -5.833436    3.119262    0.812682
 ---------------------------------------------------------------------

 SCF Done:  E(RM062X) =  -1638.71742877     A.U. after    2 cycles

 The electronic state is 1-A.
 Alpha  occ. eigenvalues -- -102.63650 -25.23845 -25.23233 -25.23232 -19.52427
 Alpha  occ. eigenvalues --  -19.50118 -19.49879 -14.70879 -14.68928 -10.76208
 Alpha  occ. eigenvalues --  -10.60789 -10.57490 -10.56254 -10.55538 -10.52485
 Alpha  occ. eigenvalues --  -10.51656 -10.51061 -10.50055 -10.49633 -10.48170
 Alpha  occ. eigenvalues --  -10.48123 -10.46886 -10.46558  -9.77940  -7.50448
 Alpha  occ. eigenvalues --   -7.49782  -7.49766  -1.42785  -1.33472  -1.32998
 Alpha  occ. eigenvalues --   -1.11276  -1.09174  -0.99872  -0.99226  -0.96731
 Alpha  occ. eigenvalues --   -0.95256  -0.89433  -0.84351  -0.82510  -0.80165
 Alpha  occ. eigenvalues --   -0.79511  -0.76317  -0.72718  -0.68361  -0.67090
 Alpha  occ. eigenvalues --   -0.66497  -0.65111  -0.64555  -0.63148  -0.61449
 Alpha  occ. eigenvalues --   -0.60745  -0.56838  -0.55204  -0.53512  -0.53320
 Alpha  occ. eigenvalues --   -0.51940  -0.50270  -0.50032  -0.49346  -0.49128
 Alpha  occ. eigenvalues --   -0.48549  -0.47948  -0.47156  -0.46870  -0.46436
 Alpha  occ. eigenvalues --   -0.46329  -0.45495  -0.45365  -0.44206  -0.43165
 Alpha  occ. eigenvalues --   -0.43048  -0.41693  -0.40670  -0.40470  -0.39743
 Alpha  occ. eigenvalues --   -0.38854  -0.37559  -0.37362  -0.36945  -0.36081
 Alpha  occ. eigenvalues --   -0.35189  -0.34531  -0.33999  -0.33945  -0.32423
 Alpha  occ. eigenvalues --   -0.28716  -0.26612  -0.25989  -0.25414  -0.25062
 Alpha  occ. eigenvalues --   -0.24901  -0.21686
 Alpha virt. eigenvalues --    0.04874   0.05620   0.05670   0.05921   0.06374
 Alpha virt. eigenvalues --    0.06808   0.07552   0.07886   0.08083   0.08524
 Alpha virt. eigenvalues --    0.09118   0.09131   0.09766   0.09914   0.10243

 Mulliken charges:
               1
     1  C   -0.849371
     2  N   -0.442285
     3  C    0.164102
     4  O   -0.412490
     5  N   -0.403945
     6  C   -0.506202
     7  C   -0.098627
     8  C   -1.122355
     9  C   -0.597301
    10  C    1.500802
    11  C   -1.597488
    12  C   -0.227227
    13  C   -0.410290
    14  H    0.469570
    15  H    0.462800
    16  H    0.241417
    17  H    0.252756
    18  H    0.271978
    19  H    0.271726
    20  H    0.255679
    21  H    0.264260
    22  H    0.254250
    23  H    0.331556
    24  Cl   0.395181
    25  C    1.024609
    26  H    0.277192
    27  H    0.339216
    28  F   -0.148948
    29  F   -0.058450
    30  F   -0.058256
    31  O   -0.495512
    32  O   -0.441718
    33  C    0.051958
    34  C   -0.207153
    35  C   -1.021799
    36  H    0.253044
    37  H    0.253244
    38  H    0.259433
    39  H    0.244797
    40  H    0.259847
 Sum of Mulliken charges =  -1.00000

 Dipole moment (field-independent basis, Debye):
    X=              1.0181    Y=              0.0596    Z=              0.1674  Tot=              1.0335
 Quadrupole moment (field-independent basis, Debye-Ang):
   XX=           -210.9155   YY=           -165.5186   ZZ=           -148.2440
   XY=             11.2695   XZ=             -0.6454   YZ=             -0.4844

  Exact polarizability: 327.895   6.050 251.762   0.877   2.805 147.524
 Approx polarizability: 297.587   2.954 265.965   1.337   3.013 177.850

                      1                      2                      3
                      A                      A                      A
 Frequencies --     17.6503                26.9031                33.5007
 Red. masses --      4.5161                 4.9176                 3.8284
 Frc consts  --      0.0008                 0.0021                 0.0025
 IR Inten    --      0.1243                 0.7881                 0.1705

                      4                      5                      6
                      A                      A                      A
 Frequencies --     41.2646                44.6031                49.1769
 Red. masses --      5.9808                 3.1427                 4.9531
 Frc consts  --      0.0060                 0.0037                 0.0071
 IR Inten    --      0.8528                 0.9408                 3.3253

                      7                      8                      9
                      A                      A                      A
 Frequencies --     57.5088                59.7607                69.0715
 Red. masses --      6.5523                 3.3710                 3.1115
 Frc consts  --      0.0128                 0.0071                 0.0087
 IR Inten    --      1.0190                 1.5700                 0.0536

                     10                     11                     12
                      A                      A                      A
 Frequencies --     74.5213                83.7787               101.9270
 Red. masses --      4.7269                 5.0948                 6.5336
 Frc consts  --      0.0155                 0.0211                 0.0400
 IR Inten    --      1.2359                 7.6121                 6.8716

                     13                     14                     15
                      A                      A                      A
 Frequencies --    123.4424               140.2847               161.4097
 Red. masses --      5.2417                 7.9530                18.0866
 Frc consts  --      0.0471                 0.0922                 0.2776
 IR Inten    --      1.5893                14.2220                 2.3881

                     16                     17                     18
                      A                      A                      A
 Frequencies --    170.9890               187.4724               191.3691
 Red. masses --      4.3754                 5.0884                 4.2060
 Frc consts  --      0.0754                 0.1054                 0.0908
 IR Inten    --     18.7254                 3.4524                 8.2094

                     19                     20                     21
                      A                      A                      A
 Frequencies --    211.5147               239.2226               243.8739
 Red. masses --      6.6964                 1.3470                 3.4293
 Frc consts  --      0.1765                 0.0454                 0.1202
 IR Inten    --      1.8592                 0.0663                 0.2208

                     22                     23                     24
                      A                      A                      A
 Frequencies --    248.3484               270.4866               307.1421
 Red. masses --      1.1402                 6.0359                 4.0231
 Frc consts  --      0.0414                 0.2602                 0.2236
 IR Inten    --      0.5990                 6.6344                12.2634

                     25                     26                     27
                      A                      A                      A
 Frequencies --    322.5296               350.0033               390.1693
 Red. masses --     12.2417                 4.9969                 7.7271
 Frc consts  --      0.7503                 0.3607                 0.6931
 IR Inten    --      1.7079                11.1887                22.1405

                     28                     29                     30
                      A                      A                      A
 Frequencies --    423.6823               424.5449               455.6429
 Red. masses --      7.0238                 6.0553                 3.9718
 Frc consts  --      0.7429                 0.6430                 0.4858
 IR Inten    --      1.0438                 6.4630                 2.6455

                     31                     32                     33
                      A                      A                      A
 Frequencies --    471.2408               515.6155               527.5989
 Red. masses --      9.0084                 5.2959                 5.6279
 Frc consts  --      1.1787                 0.8295                 0.9230
 IR Inten    --     16.5140                51.5100                21.2707

                     34                     35                     36
                      A                      A                      A
 Frequencies --    566.7064               585.8860               596.8008
 Red. masses --     13.2067                 1.9251                11.1493
 Frc consts  --      2.4990                 0.3893                 2.3397
 IR Inten    --      0.7667                 0.8136                 0.9484

                     37                     38                     39
                      A                      A                      A
 Frequencies --    639.5674               652.4639               662.4230
 Red. masses --      3.8013                 6.9966                 4.6337
 Frc consts  --      0.9161                 1.7549                 1.1980
 IR Inten    --      8.2380                24.4377                38.3364

                     40                     41                     42
                      A                      A                      A
 Frequencies --    719.2505               740.0816               754.2954
 Red. masses --      7.8279                 4.4383                 1.1123
 Frc consts  --      2.3859                 1.4323                 0.3729
 IR Inten    --     29.7469                 0.5559                 6.8491

                     43                     44                     45
                      A                      A                      A
 Frequencies --    764.3141               774.7448               792.4566
 Red. masses --      2.0648                 4.5760                 7.7000
 Frc consts  --      0.7107                 1.6183                 2.8490
 IR Inten    --     42.6426                22.2235                 9.8731

                     46                     47                     48
                      A                      A                      A
 Frequencies --    810.0810               827.4842               866.6506
 Red. masses --      2.1667                 1.4713                 1.3850
 Frc consts  --      0.8377                 0.5936                 0.6129
 IR Inten    --      1.8059                11.6519                14.7235

                     49                     50                     51
                      A                      A                      A
 Frequencies --    891.4595               904.4114               916.3340
 Red. masses --      4.0508                 1.1704                 1.4384
 Frc consts  --      1.8967                 0.5640                 0.7116
 IR Inten    --     48.3827                 5.2106                41.2631

                     52                     53                     54
                      A                      A                      A
 Frequencies --    923.1289               948.9200               958.4664
 Red. masses --      2.0058                 3.8010                 1.0980
 Frc consts  --      1.0071                 2.0165                 0.5943
 IR Inten    --     10.9642                 8.4200               124.2644

                     55                     56                     57
                      A                      A                      A
 Frequencies --   1006.5413              1025.2239              1034.6909
 Red. masses --      1.2949                 1.6648                 5.1592
 Frc consts  --      0.7729                 1.0310                 3.2543
 IR Inten    --      4.0849                 4.9993                18.9277

                     58                     59                     60
                      A                      A                      A
 Frequencies --   1049.3583              1079.9970              1108.7030
 Red. masses --      4.0700                 2.6741                 1.8133
 Frc consts  --      2.6405                 1.8377                 1.3133
 IR Inten    --     43.4312                18.8589                 1.3864

                     61                     62                     63
                      A                      A                      A
 Frequencies --   1114.5860              1130.9433              1152.2063
 Red. masses --      2.3063                 2.6702                 2.5994
 Frc consts  --      1.6881                 2.0122                 2.0332
 IR Inten    --      5.1765               312.6528                68.4177

                     64                     65                     66
                      A                      A                      A
 Frequencies --   1159.3026              1165.2941              1180.7241
 Red. masses --     12.7859                 3.8688                 1.9921
 Frc consts  --     10.1245                 3.0953                 1.6363
 IR Inten    --    334.7867               107.5537                 9.5064

                     67                     68                     69
                      A                      A                      A
 Frequencies --   1188.5348              1212.3275              1279.8686
 Red. masses --      3.1157                 1.4989                 1.5638
 Frc consts  --      2.5931                 1.2980                 1.5092
 IR Inten    --      5.6975               117.2626                 0.4151

                     70                     71                     72
                      A                      A                      A
 Frequencies --   1285.0153              1293.0110              1297.2477
 Red. masses --      1.1880                 1.1823                 2.9183
 Frc consts  --      1.1558                 1.1646                 2.8935
 IR Inten    --      7.7146                 0.3206               594.0649

                     73                     74                     75
                      A                      A                      A
 Frequencies --   1323.3625              1331.3337              1336.5541
 Red. masses --      2.1376                 1.6994                 1.1063
 Frc consts  --      2.2056                 1.7747                 1.1644
 IR Inten    --    175.2343               106.6196                34.2476

                     76                     77                     78
                      A                      A                      A
 Frequencies --   1353.5415              1363.7674              1385.8055
 Red. masses --      2.5868                 2.0678                 4.8125
 Frc consts  --      2.7922                 2.2659                 5.4453
 IR Inten    --    821.3035                76.0715               411.2412

                     79                     80                     81
                      A                      A                      A
 Frequencies --   1422.8234              1424.8722              1431.9681
 Red. masses --      1.3148                 1.2994                 1.6145
 Frc consts  --      1.5683                 1.5543                 1.9505
 IR Inten    --     19.1804                 7.9222                11.4553

                     82                     83                     84
                      A                      A                      A
 Frequencies --   1453.7255              1462.5563              1479.8042
 Red. masses --      3.9404                 3.3369                 1.2788
 Frc consts  --      4.9063                 4.2055                 1.6499
 IR Inten    --    110.4626               396.5960                49.1319

                     85                     86                     87
                      A                      A                      A
 Frequencies --   1500.8851              1512.6264              1517.8482
 Red. masses --      1.0668                 1.0374                 1.0383
 Frc consts  --      1.4158                 1.3985                 1.4093
 IR Inten    --      8.5205                 8.9420                10.5217

                     88                     89                     90
                      A                      A                      A
 Frequencies --   1520.5304              1521.1900              1537.9296
 Red. masses --      1.0807                 1.0724                 1.0869
 Frc consts  --      1.4722                 1.4620                 1.5147
 IR Inten    --     53.8203                 0.7957                14.6666

                     91                     92                     93
                      A                      A                      A
 Frequencies --   1566.2309              1596.3147              1627.9975
 Red. masses --      3.3201                 4.0739                 2.6986
 Frc consts  --      4.7986                 6.1164                 4.2141
 IR Inten    --    173.3594               107.7463                 6.1576

                     94                     95                     96
                      A                      A                      A
 Frequencies --   1665.4758              1678.1442              1710.0800
 Red. masses --      5.6475                 2.6178                 2.9518
 Frc consts  --      9.2296                 4.3436                 5.0859
 IR Inten    --   1395.4506               319.4476               437.4711

                     97                     98                     99
                      A                      A                      A
 Frequencies --   1784.8215              3032.2254              3058.4878
 Red. masses --      2.5683                 1.0692                 1.0923
 Frc consts  --      4.8204                 5.7923                 6.0200
 IR Inten    --    436.3584                68.9590              1398.8294

                    100                    101                    102
                      A                      A                      A
 Frequencies --   3059.8565              3066.7212              3074.2073
 Red. masses --      1.0372                 1.0466                 1.0588
 Frc consts  --      5.7217                 5.7994                 5.8956
 IR Inten    --     44.4588                13.8186                20.8868

                    103                    104                    105
                      A                      A                      A
 Frequencies --   3075.3193              3084.6938              3104.6525
 Red. masses --      1.0621                 1.0925                 1.1010
 Frc consts  --      5.9184                 6.1247                 6.2526
 IR Inten    --     26.1866                42.6433                12.0690

                    106                    107                    108
                      A                      A                      A
 Frequencies --   3108.3068              3131.0182              3133.6223
 Red. masses --      1.1030                 1.1039                 1.0980
 Frc consts  --      6.2787                 6.3762                 6.3527
 IR Inten    --      2.3605                74.0442                54.1284

                    109                    110                    111
                      A                      A                      A
 Frequencies --   3134.0855              3151.9400              3222.0998
 Red. masses --      1.1013                 1.1026                 1.0912
 Frc consts  --      6.3736                 6.4541                 6.6749
 IR Inten    --     37.6387                42.1340                 3.9686

                    112                    113                    114
                      A                      A                      A
 Frequencies --   3242.0400              3248.9120              3291.1239
 Red. masses --      1.0937                 1.0898                 1.0915
 Frc consts  --      6.7728                 6.7774                 6.9656
 IR Inten    --      3.1338              1468.1676                20.8593

 - Thermochemistry -
 -------------------
 Temperature   298.150 Kelvin.  Pressure   1.00000 Atm.
 Atom     1 has atomic number  6 and mass  12.00000

 Molecular mass:   353.08798 amu.
 Principal axes and moments of inertia in atomic units:
                           1         2         3
     Eigenvalues --  5077.30160********************
           X            1.00000   0.00214  -0.00045
           Y           -0.00214   1.00000  -0.00092
           Z            0.00045   0.00092   1.00000
 This molecule is an asymmetric top.
 Rotational symmetry number  1.
 Warning -- assumption of classical behavior for rotation
           may cause significant error
 Rotational temperatures (Kelvin)      0.01706     0.00459     0.00368
 Rotational constants (GHZ):           0.35545     0.09570     0.07661
 Zero-point vibrational energy     806434.1 (Joules/Mol)
                                  192.74237 (Kcal/Mol)
 Warning -- explicit consideration of  36 degrees of freedom as
           vibrations may cause significant error
 Vibrational temperatures:     25.39    38.71    48.20    59.37    64.17
          (Kelvin)             70.75    82.74    85.98    99.38   107.22
                              120.54   146.65   177.61   201.84   232.23
                              246.01   269.73   275.34   304.32   344.19
                              350.88   357.32   389.17   441.91   464.05
                              503.58   561.37   609.58   610.82   655.57
                              678.01   741.85   759.10   815.36   842.96
                              858.66   920.19   938.75   953.08  1034.84
                             1064.81  1085.26  1099.68  1114.68  1140.17
                             1165.52  1190.56  1246.92  1282.61  1301.24
                             1318.40  1328.17  1365.28  1379.02  1448.19
                             1475.07  1488.69  1509.79  1553.87  1595.17
                             1603.64  1627.17  1657.77  1667.98  1676.60
                             1698.80  1710.03  1744.27  1841.44  1848.85
                             1860.35  1866.45  1904.02  1915.49  1923.00
                             1947.44  1962.15  1993.86  2047.12  2050.07
                             2060.28  2091.58  2104.29  2129.11  2159.44
                             2176.33  2183.84  2187.70  2188.65  2212.73
                             2253.45  2296.74  2342.32  2396.25  2414.47
                             2460.42  2567.96  4362.69  4400.48  4402.45
                             4412.32  4423.09  4424.69  4438.18  4466.90
                             4472.15  4504.83  4508.58  4509.24  4534.93
                             4635.88  4664.57  4674.45  4735.19

 Zero-point correction=                           0.307155 (Hartree/Particle)
 Thermal correction to Energy=                    0.331588
 Thermal correction to Enthalpy=                  0.332532
 Thermal correction to Gibbs Free Energy=         0.248064
 Sum of electronic and zero-point Energies=          -1638.410274
 Sum of electronic and thermal Energies=             -1638.385841
 Sum of electronic and thermal Enthalpies=           -1638.384897
 Sum of electronic and thermal Free Energies=        -1638.469365

                     E (Thermal)             CV                S
                      KCal/Mol        Cal/Mol-Kelvin    Cal/Mol-Kelvin
 Total                  208.075             85.466            177.778
 Electronic               0.000              0.000              0.000
 Translational            0.889              2.981             43.478
 Rotational               0.889              2.981             36.065
 Vibrational            206.297             79.504             98.234
 Vibration     1          0.593              1.986              6.882
 Vibration     2          0.593              1.984              6.046
 Vibration     3          0.594              1.983              5.611
 Vibration     4          0.594              1.981              5.197
 Vibration     5          0.595              1.980              5.043
 Vibration     6          0.595              1.978              4.850
 Vibration     7          0.596              1.975              4.541
 Vibration     8          0.597              1.973              4.465
 Vibration     9          0.598              1.969              4.180
 Vibration    10          0.599              1.966              4.030
 Vibration    11          0.601              1.960              3.800
 Vibration    12          0.604              1.948              3.417
 Vibration    13          0.610              1.929              3.046
 Vibration    14          0.615              1.913              2.800
 Vibration    15          0.622              1.890              2.533
 Vibration    16          0.626              1.878              2.425
 Vibration    17          0.632              1.857              2.253
 Vibration    18          0.634              1.852              2.215
 Vibration    19          0.643              1.823              2.031
 Vibration    20          0.657              1.780              1.809
 Vibration    21          0.659              1.773              1.774
 Vibration    22          0.662              1.766              1.742
 Vibration    23          0.674              1.728              1.593
 Vibration    24          0.697              1.660              1.378
 Vibration    25          0.708              1.630              1.297
 Vibration    26          0.727              1.575              1.166
 Vibration    27          0.758              1.491              0.999
 Vibration    28          0.786              1.419              0.880
 Vibration    29          0.787              1.417              0.877
 Vibration    30          0.814              1.348              0.779
 Vibration    31          0.828              1.314              0.734
 Vibration    32          0.871              1.215              0.620
 Vibration    33          0.883              1.189              0.593
 Vibration    34          0.923              1.103              0.511
 Vibration    35          0.943              1.062              0.475
 Vibration    36          0.955              1.039              0.455

 Optimization completed.
    -- Stationary point found.
 Normal termination of Gaussian 09 at Thu Nov 14 23:20:04 2019.
