 Gaussian 09, Revision E.01,

 ----------------------------------------------------------------------
 # M062X/6-311+G* SCF=Tight INT(grid=ultrafine) OPT IOP(2/17=4) Empiric
 alDispersion=GD3 maxdisk=2684354560
 ----------------------------------------------------------------------

 -----------------------------------
 CP19_carboxy.M062X_6-311pGd_opt_GD3
 -----------------------------------
 Symbolic Z-matrix:
 Charge = -1 Multiplicity = 1

 SCF Done:  E(RM062X) =  -1638.67729402     A.U. after   17 cycles
 Optimization completed.
    -- Stationary point found.
 Normal termination of Gaussian 09 at Thu Nov 14 21:54:05 2019.
 Gaussian 09:  ES64L-G09RevE.01 30-Nov-2015

 ----------------------------------------------------------------------
 # M062X/6-311+G* SCF=Tight INT(grid=ultrafine) EmpiricalDispersion=GD3
  Freq=Noraman maxdisk=2684354560 geom=check guess=read IOP(2/17=4)
 ----------------------------------------------------------------------

 -----------------------------------
 CP19_carboxy.M062X_6-311pGd_opt_GD3
 -----------------------------------
 Structure from the checkpoint file:  "CP19_carboxy.M062X_6-311pGd_opt_GD3.chk"
 Charge = -1 Multiplicity = 1

                         Standard orientation:
 ---------------------------------------------------------------------
 Center     Atomic      Atomic             Coordinates (Angstroms)
 Number     Number       Type             X           Y           Z
 ---------------------------------------------------------------------
      1          6           0       -0.623104   -0.090921   -0.020167
      2          7           0        0.737335   -0.270013   -0.026275
      3          6           0        1.430948   -1.475837    0.022761
      4          8           0        0.890253   -2.574861    0.077508
      5          7           0        2.771680   -1.301477   -0.003902
      6          6           0        3.657579   -2.438368    0.102838
      7          6           0        5.085305   -2.011548   -0.214122
      8          6           0        6.065131   -3.171199   -0.067676
      9          6           0       -1.567393   -1.133828    0.019510
     10          6           0       -2.916390   -0.828509    0.019363
     11          6           0       -3.389753    0.483353   -0.019347
     12          6           0       -2.440708    1.509475   -0.058555
     13          6           0       -1.088899    1.239933   -0.059473
     14          1           0        1.295891    0.605976   -0.062179
     15          1           0        3.186471   -0.357834    0.031355
     16          1           0        3.325872   -3.220771   -0.587217
     17          1           0        3.609651   -2.874066    1.110628
     18          1           0        5.368044   -1.183028    0.441702
     19          1           0        5.115820   -1.610749   -1.231699
     20          1           0        6.066168   -3.559580    0.954862
     21          1           0        7.086093   -2.864827   -0.306612
     22          1           0        5.801282   -3.998764   -0.732865
     23          1           0       -1.236500   -2.160438    0.050028
     24         17           0       -4.040969   -2.170957    0.068333
     25          6           0       -4.847745    0.806770   -0.019937
     26          1           0       -2.778029    2.538127   -0.088940
     27          1           0       -0.358467    2.041855   -0.089493
     28          9           0       -5.063785    2.136125   -0.061565
     29          9           0       -5.505925    0.290189   -1.075996
     30          9           0       -5.491634    0.359995    1.076051
     31          8           0        2.030063    2.172874   -0.099673
     32          8           0        4.043399    1.218779    0.102344
     33          6           0        3.283370    2.206996    0.003646
     34          6           0        3.915896    3.606912    0.005585
     35          6           0        5.432936    3.608351    0.131151
     36          1           0        3.450136    4.167992    0.821827
     37          1           0        3.594014    4.105107   -0.914302
     38          1           0        5.744413    3.117174    1.054489
     39          1           0        5.833080    4.626987    0.126875
     40          1           0        5.888764    3.052941   -0.690172
 ---------------------------------------------------------------------

 SCF Done:  E(RM062X) =  -1638.67729402     A.U. after    2 cycles

 The electronic state is 1-A.
 Alpha  occ. eigenvalues -- -102.58624 -25.18934 -25.18252 -25.18251 -19.47074
 Alpha  occ. eigenvalues --  -19.44684 -19.44424 -14.65539 -14.63581 -10.71242
 Alpha  occ. eigenvalues --  -10.55432 -10.52411 -10.50891 -10.50336 -10.47421
 Alpha  occ. eigenvalues --  -10.46706 -10.46309 -10.44894 -10.44533 -10.44297
 Alpha  occ. eigenvalues --  -10.43680 -10.41944 -10.41870  -9.72914  -7.45422
 Alpha  occ. eigenvalues --   -7.44758  -7.44743  -1.37795  -1.28501  -1.28013
 Alpha  occ. eigenvalues --   -1.05938  -1.03744  -0.94584  -0.93890  -0.91573
 Alpha  occ. eigenvalues --   -0.90126  -0.84368  -0.79459  -0.77842  -0.75227
 Alpha  occ. eigenvalues --   -0.74433  -0.71347  -0.68027  -0.63410  -0.62058
 Alpha  occ. eigenvalues --   -0.61536  -0.60118  -0.59550  -0.58540  -0.56349
 Alpha  occ. eigenvalues --   -0.55587  -0.51673  -0.50088  -0.48556  -0.48327
 Alpha  occ. eigenvalues --   -0.46705  -0.45444  -0.45057  -0.44348  -0.44148
 Alpha  occ. eigenvalues --   -0.43542  -0.42934  -0.42185  -0.41853  -0.41402
 Alpha  occ. eigenvalues --   -0.41244  -0.40422  -0.40347  -0.39354  -0.38275
 Alpha  occ. eigenvalues --   -0.37781  -0.36940  -0.35967  -0.35480  -0.34533
 Alpha  occ. eigenvalues --   -0.34018  -0.33032  -0.32391  -0.31930  -0.31207
 Alpha  occ. eigenvalues --   -0.30713  -0.29980  -0.29063  -0.28919  -0.27275
 Alpha  occ. eigenvalues --   -0.23367  -0.21478  -0.20573  -0.20065  -0.19673
 Alpha  occ. eigenvalues --   -0.19475  -0.16412
 Alpha virt. eigenvalues --    0.09249   0.09981   0.10028   0.10288   0.10741
 Alpha virt. eigenvalues --    0.10835   0.11578   0.11881   0.12141   0.12536
 Alpha virt. eigenvalues --    0.13253   0.13393   0.13809   0.14188   0.14708

 Mulliken charges:
               1
     1  C   -0.879493
     2  N   -0.432170
     3  C    0.123943
     4  O   -0.394841
     5  N   -0.370517
     6  C   -0.493028
     7  C   -0.107739
     8  C   -1.093569
     9  C   -0.580206
    10  C    1.508436
    11  C   -1.603985
    12  C   -0.227611
    13  C   -0.377753
    14  H    0.470610
    15  H    0.455189
    16  H    0.234935
    17  H    0.240670
    18  H    0.280236
    19  H    0.264776
    20  H    0.247370
    21  H    0.253290
    22  H    0.245081
    23  H    0.329322
    24  Cl   0.394506
    25  C    1.012075
    26  H    0.257815
    27  H    0.337487
    28  F   -0.150471
    29  F   -0.054295
    30  F   -0.054023
    31  O   -0.474059
    32  O   -0.423403
    33  C    0.039944
    34  C   -0.199863
    35  C   -1.011131
    36  H    0.243583
    37  H    0.244552
    38  H    0.256742
    39  H    0.230101
    40  H    0.257496
 Sum of Mulliken charges =  -1.00000

 Dipole moment (field-independent basis, Debye):
    X=             -1.2130    Y=             -0.0544    Z=             -0.1069  Tot=              1.2189
 Quadrupole moment (field-independent basis, Debye-Ang):
   XX=           -216.2884   YY=           -168.4242   ZZ=           -148.4791
   XY=            -10.2574   XZ=             -0.5210   YZ=              0.5702

  Exact polarizability: 301.934  -4.975 224.592   0.680  -2.973 133.296
 Approx polarizability: 299.421  -3.281 266.875   0.970  -4.150 178.479

                      1                      2                      3
                      A                      A                      A
 Frequencies --     15.1877                18.7423                31.1160
 Red. masses --      5.0784                 4.4304                 2.7837
 Frc consts  --      0.0007                 0.0009                 0.0016
 IR Inten    --      0.1176                 0.6478                 0.1407

                      4                      5                      6
                      A                      A                      A
 Frequencies --     37.7730                41.0432                49.8098
 Red. masses --      3.3170                 3.0841                 6.4162
 Frc consts  --      0.0028                 0.0031                 0.0094
 IR Inten    --      0.1036                 0.3012                 2.1420

                      7                      8                      9
                      A                      A                      A
 Frequencies --     53.1208                59.8496                61.7970
 Red. masses --      8.4908                 4.3300                 2.9852
 Frc consts  --      0.0141                 0.0091                 0.0067
 IR Inten    --      0.8158                 1.9985                 0.1463

                     10                     11                     12
                      A                      A                      A
 Frequencies --     66.7898                78.1197                95.2103
 Red. masses --      7.2469                 5.3857                 6.8238
 Frc consts  --      0.0190                 0.0194                 0.0364
 IR Inten    --      0.4196                 6.4714                 5.5221

                     13                     14                     15
                      A                      A                      A
 Frequencies --    119.3941               139.3969               161.0892
 Red. masses --      4.9300                 7.9922                17.6317
 Frc consts  --      0.0414                 0.0915                 0.2696
 IR Inten    --      1.4163                12.3288                 1.8814

                     16                     17                     18
                      A                      A                      A
 Frequencies --    166.1671               187.1007               189.7730
 Red. masses --      3.8819                 4.9626                 4.9277
 Frc consts  --      0.0632                 0.1024                 0.1046
 IR Inten    --     12.6363                 6.5839                 6.8824

                     19                     20                     21
                      A                      A                      A
 Frequencies --    211.5373               219.7387               238.4499
 Red. masses --      6.6623                 1.1263                 1.4547
 Frc consts  --      0.1757                 0.0320                 0.0487
 IR Inten    --      1.7435                 0.5065                 0.0899

                     22                     23                     24
                      A                      A                      A
 Frequencies --    241.7057               269.0402               298.8004
 Red. masses --      3.1664                 5.8972                 4.0135
 Frc consts  --      0.1090                 0.2515                 0.2111
 IR Inten    --      0.2382                 5.7447                12.9017

                     25                     26                     27
                      A                      A                      A
 Frequencies --    321.7100               346.0989               388.6258
 Red. masses --     12.4470                 4.9142                 7.7243
 Frc consts  --      0.7590                 0.3468                 0.6873
 IR Inten    --      1.1004                 9.7000                16.7641

                     28                     29                     30
                      A                      A                      A
 Frequencies --    421.1200               424.9126               454.2496
 Red. masses --      6.9883                 6.0823                 4.0239
 Frc consts  --      0.7302                 0.6470                 0.4892
 IR Inten    --      0.8494                 6.1117                 2.1345

                     31                     32                     33
                      A                      A                      A
 Frequencies --    471.1525               515.7100               524.1848
 Red. masses --      8.9377                 5.4312                 5.5237
 Frc consts  --      1.1690                 0.8510                 0.8942
 IR Inten    --     13.7968                52.2741                 8.2871

                     34                     35                     36
                      A                      A                      A
 Frequencies --    565.8371               585.0109               596.1165
 Red. masses --     13.3110                 1.9337                11.1631
 Frc consts  --      2.5110                 0.3899                 2.3372
 IR Inten    --      0.5681                 0.3760                 0.7449

                     37                     38                     39
                      A                      A                      A
 Frequencies --    640.1456               653.2339               660.7375
 Red. masses --      3.8675                 6.8907                 4.6454
 Frc consts  --      0.9338                 1.7324                 1.1949
 IR Inten    --      6.8322                20.9056                30.6158

                     40                     41                     42
                      A                      A                      A
 Frequencies --    719.3556               737.7456               750.4298
 Red. masses --      7.8381                 4.5852                 1.0982
 Frc consts  --      2.3897                 1.4704                 0.3644
 IR Inten    --     24.8069                 0.1416                 2.9217

                     43                     44                     45
                      A                      A                      A
 Frequencies --    767.5495               779.0056               792.2337
 Red. masses --      3.5973                 3.3040                 7.5978
 Frc consts  --      1.2487                 1.1813                 2.8096
 IR Inten    --     15.4979                34.5553                 8.6057

                     46                     47                     48
                      A                      A                      A
 Frequencies --    815.7897               824.9207               867.3328
 Red. masses --      1.7382                 1.4599                 1.3837
 Frc consts  --      0.6816                 0.5853                 0.6133
 IR Inten    --      3.3607                12.2727                11.6527

                     49                     50                     51
                      A                      A                      A
 Frequencies --    889.5763               901.2171               920.0776
 Red. masses --      4.1043                 1.1718                 1.9297
 Frc consts  --      1.9136                 0.5607                 0.9625
 IR Inten    --     46.5715                 3.6248                11.4304

                     52                     53                     54
                      A                      A                      A
 Frequencies --    920.5695               948.8980               968.2575
 Red. masses --      1.4316                 4.1738                 1.1060
 Frc consts  --      0.7148                 2.2142                 0.6109
 IR Inten    --     32.2735                 5.7649                96.2576

                     55                     56                     57
                      A                      A                      A
 Frequencies --   1007.5862              1019.7848              1036.1887
 Red. masses --      1.2718                 1.6847                 5.2883
 Frc consts  --      0.7608                 1.0323                 3.3454
 IR Inten    --     11.0195                 3.3646                17.1750

                     58                     59                     60
                      A                      A                      A
 Frequencies --   1047.7145              1078.9407              1108.9114
 Red. masses --      3.9657                 2.7564                 1.7914
 Frc consts  --      2.5648                 1.8906                 1.2979
 IR Inten    --     37.0494                16.9519                 1.0064

                     61                     62                     63
                      A                      A                      A
 Frequencies --   1111.0470              1134.7962              1152.1323
 Red. masses --      2.3502                 2.6878                 2.4764
 Frc consts  --      1.7093                 2.0393                 1.9368
 IR Inten    --      3.9734               255.9046                37.4615

                     64                     65                     66
                      A                      A                      A
 Frequencies --   1168.8946              1174.3619              1181.1662
 Red. masses --      3.4319                12.8590                 1.8446
 Frc consts  --      2.7627                10.4487                 1.5163
 IR Inten    --     95.8452               282.8880                 7.6506

                     67                     68                     69
                      A                      A                      A
 Frequencies --   1192.7949              1216.3243              1279.8627
 Red. masses --      3.7711                 1.5797                 1.1920
 Frc consts  --      3.1612                 1.3770                 1.1504
 IR Inten    --      6.6679               107.9954                 9.1460

                     70                     71                     72
                      A                      A                      A
 Frequencies --   1283.9246              1289.4470              1299.9507
 Red. masses --      1.5703                 1.1856                 2.7011
 Frc consts  --      1.5251                 1.1614                 2.6893
 IR Inten    --      2.6178                 0.5282               434.9978

                     73                     74                     75
                      A                      A                      A
 Frequencies --   1322.5447              1328.4043              1333.7291
 Red. masses --      2.0038                 1.6740                 1.1734
 Frc consts  --      2.0651                 1.7404                 1.2298
 IR Inten    --     86.8777                72.7536                78.2022

                     76                     77                     78
                      A                      A                      A
 Frequencies --   1356.9418              1367.7240              1390.9018
 Red. masses --      2.7289                 1.9996                 4.9530
 Frc consts  --      2.9605                 2.2038                 5.6456
 IR Inten    --    683.4619               118.0468               373.4972

                     79                     80                     81
                      A                      A                      A
 Frequencies --   1418.2318              1421.0704              1430.8683
 Red. masses --      1.3169                 1.2798                 1.6620
 Frc consts  --      1.5606                 1.5227                 2.0049
 IR Inten    --     18.8840                 5.1507                 6.9522

                     82                     83                     84
                      A                      A                      A
 Frequencies --   1456.0682              1461.3822              1485.1136
 Red. masses --      3.8810                 4.4341                 1.1698
 Frc consts  --      4.8479                 5.5794                 1.5201
 IR Inten    --     96.0205               377.7416                16.9790

                     85                     86                     87
                      A                      A                      A
 Frequencies --   1507.3802              1509.9184              1521.0390
 Red. masses --      1.0657                 1.0379                 1.0817
 Frc consts  --      1.4266                 1.3941                 1.4745
 IR Inten    --      7.7695                 6.3625                45.4564

                     88                     89                     90
                      A                      A                      A
 Frequencies --   1522.2417              1525.5687              1539.6905
 Red. masses --      1.0390                 1.0677                 1.0852
 Frc consts  --      1.4185                 1.4640                 1.5158
 IR Inten    --      8.2969                 1.5370                10.5147

                     91                     92                     93
                      A                      A                      A
 Frequencies --   1569.7187              1597.1627              1630.7132
 Red. masses --      3.2617                 4.4647                 2.5973
 Frc consts  --      4.7352                 6.7103                 4.0694
 IR Inten    --    112.6113               109.0695                10.9528

                     94                     95                     96
                      A                      A                      A
 Frequencies --   1669.8101              1688.2640              1716.6667
 Red. masses --      6.4488                 2.2940                 2.9396
 Frc consts  --     10.5941                 3.8524                 5.1040
 IR Inten    --    872.1854               448.0756               500.6389

                     97                     98                     99
                      A                      A                      A
 Frequencies --   1794.0597              3020.6077              3056.2098
 Red. masses --      2.7166                 1.0707                 1.0367
 Frc consts  --      5.1516                 5.7560                 5.7050
 IR Inten    --    382.5280                66.6703                47.8564

                    100                    101                    102
                      A                      A                      A
 Frequencies --   3057.2048              3062.0081              3071.3117
 Red. masses --      1.0694                 1.0686                 1.0598
 Frc consts  --      5.8890                 5.9033                 5.8903
 IR Inten    --    867.3531               296.0260                22.6760

                    103                    104                    105
                      A                      A                      A
 Frequencies --   3076.8415              3079.9959              3101.6977
 Red. masses --      1.0691                 1.0842                 1.1013
 Frc consts  --      5.9631                 6.0596                 6.2422
 IR Inten    --     10.3920                58.2126                11.7650

                    106                    107                    108
                      A                      A                      A
 Frequencies --   3106.0312              3129.6807              3129.9646
 Red. masses --      1.1023                 1.1009                 1.0964
 Frc consts  --      6.2655                 6.3532                 6.3283
 IR Inten    --      0.3709                50.2486                38.7651

                    109                    110                    111
                      A                      A                      A
 Frequencies --   3130.2911              3149.9828              3213.3052
 Red. masses --      1.1037                 1.1023                 1.0919
 Frc consts  --      6.3717                 6.4443                 6.6428
 IR Inten    --     60.4125                36.9746                 1.3956

                    112                    113                    114
                      A                      A                      A
 Frequencies --   3235.1945              3238.7092              3287.1091
 Red. masses --      1.0897                 1.0930                 1.0916
 Frc consts  --      6.7196                 6.7545                 6.9490
 IR Inten    --   1446.0172                 9.6073                18.3257

 - Thermochemistry -
 -------------------
 Temperature   298.150 Kelvin.  Pressure   1.00000 Atm.
 Atom     1 has atomic number  6 and mass  12.00000

 Molecular mass:   353.08798 amu.
 Principal axes and moments of inertia in atomic units:
                           1         2         3
     Eigenvalues --  5028.62715********************
           X            1.00000  -0.00201  -0.00002
           Y            0.00201   1.00000   0.00125
           Z            0.00001  -0.00125   1.00000
 This molecule is an asymmetric top.
 Rotational symmetry number  1.
 Warning -- assumption of classical behavior for rotation
           may cause significant error
 Rotational temperatures (Kelvin)      0.01722     0.00458     0.00368
 Rotational constants (GHZ):           0.35889     0.09546     0.07663
 Zero-point vibrational energy     805791.1 (Joules/Mol)
                                  192.58868 (Kcal/Mol)
 Warning -- explicit consideration of  36 degrees of freedom as
           vibrations may cause significant error
 Vibrational temperatures:     21.85    26.97    44.77    54.35    59.05
          (Kelvin)             71.67    76.43    86.11    88.91    96.10
                              112.40   136.99   171.78   200.56   231.77
                              239.08   269.20   273.04   304.35   316.15
                              343.08   347.76   387.09   429.91   462.87
                              497.96   559.15   605.90   611.35   653.56
                              677.88   741.99   754.18   814.11   841.70
                              857.68   921.03   939.86   950.65  1034.99
                             1061.45  1079.70  1104.33  1120.81  1139.85
                             1173.74  1186.88  1247.90  1279.90  1296.65
                             1323.78  1324.49  1365.25  1393.10  1449.69
                             1467.24  1490.84  1507.43  1552.35  1595.47
                             1598.55  1632.72  1657.66  1681.78  1689.64
                             1699.43  1716.16  1750.02  1841.43  1847.28
                             1855.22  1870.34  1902.84  1911.28  1918.94
                             1952.33  1967.85  2001.19  2040.52  2044.60
                             2058.70  2094.95  2102.60  2136.74  2168.78
                             2172.43  2188.43  2190.16  2194.95  2215.27
                             2258.47  2297.96  2346.23  2402.48  2429.03
                             2469.90  2581.25  4345.98  4397.20  4398.63
                             4405.54  4418.93  4426.88  4431.42  4462.65
                             4468.88  4502.91  4503.32  4503.79  4532.12
                             4623.22  4654.72  4659.77  4729.41

 Zero-point correction=                           0.306910 (Hartree/Particle)
 Thermal correction to Energy=                    0.331538
 Thermal correction to Enthalpy=                  0.332482
 Thermal correction to Gibbs Free Energy=         0.246674
 Sum of electronic and zero-point Energies=          -1638.370384
 Sum of electronic and thermal Energies=             -1638.345756
 Sum of electronic and thermal Enthalpies=           -1638.344812
 Sum of electronic and thermal Free Energies=        -1638.430620

                     E (Thermal)             CV                S
                      KCal/Mol        Cal/Mol-Kelvin    Cal/Mol-Kelvin
 Total                  208.043             85.568            180.597
 Electronic               0.000              0.000              0.000
 Translational            0.889              2.981             43.478
 Rotational               0.889              2.981             36.058
 Vibrational            206.266             79.607            101.060
 Vibration     1          0.593              1.986              7.181
 Vibration     2          0.593              1.986              6.763
 Vibration     3          0.594              1.983              5.757
 Vibration     4          0.594              1.982              5.373
 Vibration     5          0.594              1.981              5.208
 Vibration     6          0.595              1.978              4.825
 Vibration     7          0.596              1.976              4.698
 Vibration     8          0.597              1.973              4.462
 Vibration     9          0.597              1.973              4.399
 Vibration    10          0.598              1.970              4.246
 Vibration    11          0.599              1.964              3.938
 Vibration    12          0.603              1.953              3.550
 Vibration    13          0.609              1.933              3.110
 Vibration    14          0.615              1.914              2.812
 Vibration    15          0.622              1.890              2.537
 Vibration    16          0.624              1.884              2.478
 Vibration    17          0.632              1.858              2.256
 Vibration    18          0.633              1.854              2.230
 Vibration    19          0.643              1.823              2.030
 Vibration    20          0.647              1.811              1.961
 Vibration    21          0.656              1.782              1.814
 Vibration    22          0.658              1.776              1.790
 Vibration    23          0.673              1.730              1.602
 Vibration    24          0.692              1.676              1.424
 Vibration    25          0.707              1.632              1.301
 Vibration    26          0.724              1.583              1.184
 Vibration    27          0.757              1.494              1.005
 Vibration    28          0.784              1.424              0.888
 Vibration    29          0.787              1.416              0.875
 Vibration    30          0.813              1.351              0.783
 Vibration    31          0.828              1.314              0.734
 Vibration    32          0.871              1.215              0.620
 Vibration    33          0.879              1.196              0.600
 Vibration    34          0.922              1.105              0.512
 Vibration    35          0.942              1.064              0.476
 Vibration    36          0.954              1.040              0.456

 Normal termination of Gaussian 09 at Thu Nov 14 23:17:41 2019.
