 Gaussian 09, Revision E.01,

 ----------------------------------------------------------------------
 # M062X/6-311+G* SCF=Tight INT(grid=ultrafine) OPT IOP(2/17=4) Empiric
 alDispersion=GD3 SCRF=(SMD,Solvent=h2o) maxdisk=2684354560
 ----------------------------------------------------------------------

 -----------------------------------------
 CP19_carboxy.M062X_6-311pGd_opt_water_GD3
 -----------------------------------------
 Symbolic Z-matrix:
 Charge = -1 Multiplicity = 1

 SCF Done:  E(RM062X) =  -1638.74778293     A.U. after   15 cycles
 Optimization completed.
    -- Stationary point found.
 Normal termination of Gaussian 09 at Thu Nov 14 21:53:50 2019.
 Gaussian 09:  ES64L-G09RevE.01 30-Nov-2015

 ----------------------------------------------------------------------
 # M062X/6-311+G* SCF=Tight INT(grid=ultrafine) SCRF=(SMD,Solvent=h2o)
 EmpiricalDispersion=GD3 Freq=Noraman maxdisk=2684354560 geom=check gue
 ss=read IOP(2/17=4)
 ----------------------------------------------------------------------

 -----------------------------------------
 CP19_carboxy.M062X_6-311pGd_opt_water_GD3
 -----------------------------------------
 Structure from the checkpoint file:  "CP19_carboxy.M062X_6-311pGd_opt_water_GD3.chk"
 Charge = -1 Multiplicity = 1

                         Standard orientation:
 ---------------------------------------------------------------------
 Center     Atomic      Atomic             Coordinates (Angstroms)
 Number     Number       Type             X           Y           Z
 ---------------------------------------------------------------------
      1          6           0       -0.669487   -0.068840   -0.021093
      2          7           0        0.702952   -0.257092   -0.010932
      3          6           0        1.392423   -1.454026   -0.089092
      4          8           0        0.836493   -2.552794   -0.211066
      5          7           0        2.729175   -1.316955   -0.032076
      6          6           0        3.600901   -2.481312   -0.093466
      7          6           0        5.057126   -2.052862   -0.004662
      8          6           0        5.989278   -3.256181   -0.072964
      9          6           0       -1.611662   -1.103355    0.078480
     10          6           0       -2.961753   -0.795218    0.072397
     11          6           0       -3.425554    0.515338   -0.025634
     12          6           0       -2.479715    1.537058   -0.115806
     13          6           0       -1.128260    1.255976   -0.114489
     14          1           0        1.269076    0.603401   -0.026280
     15          1           0        3.152964   -0.400042    0.135111
     16          1           0        3.425883   -3.021767   -1.028682
     17          1           0        3.362186   -3.167872    0.725173
     18          1           0        5.216851   -1.506859    0.930379
     19          1           0        5.279704   -1.357471   -0.820053
     20          1           0        5.793052   -3.951886    0.747112
     21          1           0        7.034772   -2.949105   -0.007211
     22          1           0        5.859256   -3.801015   -1.011752
     23          1           0       -1.299363   -2.131686    0.163574
     24         17           0       -4.085393   -2.127871    0.200751
     25          6           0       -4.885720    0.839613   -0.036066
     26          1           0       -2.807371    2.566273   -0.191650
     27          1           0       -0.408719    2.063317   -0.188095
     28          9           0       -5.105467    2.157241   -0.148120
     29          9           0       -5.541256    0.256909   -1.058410
     30          9           0       -5.516574    0.443858    1.086651
     31          8           0        2.187991    2.167643   -0.153481
     32          8           0        4.108136    1.199856    0.426863
     33          6           0        3.432192    2.199301    0.073698
     34          6           0        4.124450    3.546907   -0.096605
     35          6           0        5.629825    3.529558    0.116729
     36          1           0        3.641105    4.241010    0.598086
     37          1           0        3.876299    3.909891   -1.098295
     38          1           0        5.884487    3.203138    1.126936
     39          1           0        6.049241    4.527475   -0.028321
     40          1           0        6.121834    2.853875   -0.585912
 ---------------------------------------------------------------------

 SCF Done:  E(RM062X) =  -1638.74778293     A.U. after    2 cycles

 The electronic state is 1-A.
 Alpha  occ. eigenvalues -- -102.68714 -25.28490 -25.28040 -25.28038 -19.59417
 Alpha  occ. eigenvalues --  -19.57915 -19.57628 -14.77496 -14.75614 -10.81014
 Alpha  occ. eigenvalues --  -10.67676 -10.63870 -10.62721 -10.61212 -10.57730
 Alpha  occ. eigenvalues --  -10.56654 -10.56129 -10.55668 -10.55185 -10.52685
 Alpha  occ. eigenvalues --  -10.52467 -10.51547 -10.51352  -9.83002  -7.55513
 Alpha  occ. eigenvalues --   -7.54842  -7.54824  -1.47595  -1.38259  -1.37825
 Alpha  occ. eigenvalues --   -1.17956  -1.16703  -1.06867  -1.05977  -1.02776
 Alpha  occ. eigenvalues --   -1.00863  -0.94739  -0.89654  -0.87277  -0.85744
 Alpha  occ. eigenvalues --   -0.84826  -0.81457  -0.77601  -0.73549  -0.72412
 Alpha  occ. eigenvalues --   -0.72015  -0.69942  -0.69621  -0.68100  -0.67191
 Alpha  occ. eigenvalues --   -0.66331  -0.62827  -0.61031  -0.58918  -0.58241
 Alpha  occ. eigenvalues --   -0.58173  -0.55794  -0.55493  -0.54585  -0.54150
 Alpha  occ. eigenvalues --   -0.53945  -0.53451  -0.52942  -0.52761  -0.52079
 Alpha  occ. eigenvalues --   -0.51916  -0.51620  -0.50786  -0.50185  -0.49651
 Alpha  occ. eigenvalues --   -0.48379  -0.46568  -0.46203  -0.45628  -0.45495
 Alpha  occ. eigenvalues --   -0.44328  -0.43096  -0.42352  -0.41770  -0.41461
 Alpha  occ. eigenvalues --   -0.39700  -0.39461  -0.39031  -0.38992  -0.38085
 Alpha  occ. eigenvalues --   -0.35875  -0.33993  -0.32955  -0.32595  -0.32483
 Alpha  occ. eigenvalues --   -0.31504  -0.27770
 Alpha virt. eigenvalues --   -0.00530   0.00308   0.01239   0.02096   0.02611
 Alpha virt. eigenvalues --    0.03189   0.03369   0.03452   0.04376   0.04592
 Alpha virt. eigenvalues --    0.04865   0.05112   0.05664   0.05849   0.06091

 Mulliken charges:
               1
     1  C   -0.787638
     2  N   -0.413249
     3  C    0.305413
     4  O   -0.532978
     5  N   -0.441313
     6  C   -0.560604
     7  C   -0.076384
     8  C   -1.175290
     9  C   -0.611022
    10  C    1.214863
    11  C   -1.466537
    12  C   -0.203557
    13  C   -0.251190
    14  H    0.488517
    15  H    0.467650
    16  H    0.271174
    17  H    0.274722
    18  H    0.272991
    19  H    0.275203
    20  H    0.268859
    21  H    0.280161
    22  H    0.269099
    23  H    0.334903
    24  Cl   0.406522
    25  C    0.929177
    26  H    0.313827
    27  H    0.328848
    28  F   -0.142968
    29  F   -0.065470
    30  F   -0.065994
    31  O   -0.616394
    32  O   -0.583372
    33  C    0.216478
    34  C   -0.281104
    35  C   -1.028127
    36  H    0.285289
    37  H    0.284545
    38  H    0.269568
    39  H    0.275320
    40  H    0.270066
 Sum of Mulliken charges =  -1.00000

 Dipole moment (field-independent basis, Debye):
    X=             -1.8652    Y=              0.9856    Z=             -0.3153  Tot=              2.1330
 Quadrupole moment (field-independent basis, Debye-Ang):
   XX=           -201.9380   YY=           -158.3018   ZZ=           -148.3449
   XY=            -12.3380   XZ=             -3.9154   YZ=             -2.1704

  Exact polarizability: 364.221  -8.915 308.793   2.800  -6.943 197.328
 Approx polarizability: 290.129  -1.588 263.109   2.372  -5.696 177.813

                      1                      2                      3
                      A                      A                      A
 Frequencies --     10.4291                17.7173                27.5126
 Red. masses --      8.0010                 5.7405                 4.7477
 Frc consts  --      0.0005                 0.0011                 0.0021
 IR Inten    --      0.2731                 1.4069                 1.9931

                      4                      5                      6
                      A                      A                      A
 Frequencies --     30.5476                43.0890                50.1188
 Red. masses --      4.3201                 7.1412                 5.9508
 Frc consts  --      0.0024                 0.0078                 0.0088
 IR Inten    --      1.5958                 9.7350                 5.9403

                      7                      8                      9
                      A                      A                      A
 Frequencies --     55.2893                61.3620                62.6085
 Red. masses --      2.3883                 7.0289                 4.5962
 Frc consts  --      0.0043                 0.0156                 0.0106
 IR Inten    --      1.1919                 1.1338                 4.3739

                     10                     11                     12
                      A                      A                      A
 Frequencies --     64.6060                79.0643                94.2873
 Red. masses --      2.6938                 5.3339                 4.2834
 Frc consts  --      0.0066                 0.0196                 0.0224
 IR Inten    --      6.5095                 6.9648                12.4719

                     13                     14                     15
                      A                      A                      A
 Frequencies --    109.4334               126.1894               157.5569
 Red. masses --      4.2374                 8.4239                 5.4201
 Frc consts  --      0.0299                 0.0790                 0.0793
 IR Inten    --      6.4243                25.9444                11.3849

                     16                     17                     18
                      A                      A                      A
 Frequencies --    161.6959               166.2048               182.8833
 Red. masses --      3.1930                10.9501                 6.4886
 Frc consts  --      0.0492                 0.1782                 0.1279
 IR Inten    --     13.2108                 4.8741                 2.0618

                     19                     20                     21
                      A                      A                      A
 Frequencies --    210.8757               238.0053               249.1808
 Red. masses --      6.9985                 7.7201                 1.0911
 Frc consts  --      0.1834                 0.2577                 0.0399
 IR Inten    --      1.7908                 0.6072                 1.4939

                     22                     23                     24
                      A                      A                      A
 Frequencies --    249.9079               265.8033               297.3623
 Red. masses --      1.1251                 6.2037                 3.9276
 Frc consts  --      0.0414                 0.2582                 0.2046
 IR Inten    --      0.2337                 6.8060                11.2352

                     25                     26                     27
                      A                      A                      A
 Frequencies --    320.0173               344.4986               385.7825
 Red. masses --     12.4073                 4.8577                 7.5528
 Frc consts  --      0.7486                 0.3397                 0.6623
 IR Inten    --      2.6463                14.4846                29.8240

                     28                     29                     30
                      A                      A                      A
 Frequencies --    418.6982               424.7641               452.6524
 Red. masses --      6.1066                 5.9496                 4.1104
 Frc consts  --      0.6307                 0.6325                 0.4962
 IR Inten    --      2.8736                 6.0305                 5.1694

                     31                     32                     33
                      A                      A                      A
 Frequencies --    470.7138               511.9132               521.5247
 Red. masses --      8.9361                 5.2034                 5.5137
 Frc consts  --      1.1666                 0.8034                 0.8836
 IR Inten    --     20.6499                48.8520                22.9009

                     34                     35                     36
                      A                      A                      A
 Frequencies --    564.3654               582.3699               597.0013
 Red. masses --     13.0414                 1.8816                11.0686
 Frc consts  --      2.4473                 0.3760                 2.3243
 IR Inten    --      2.1623                 3.7470                 1.1882

                     37                     38                     39
                      A                      A                      A
 Frequencies --    630.5404               636.4063               651.3308
 Red. masses --      2.4291                 1.4339                 5.4185
 Frc consts  --      0.5690                 0.3422                 1.3544
 IR Inten    --      5.8066               171.7217                51.7441

                     40                     41                     42
                      A                      A                      A
 Frequencies --    656.9735               716.8791               739.1002
 Red. masses --      4.2424                 7.6189                 4.4118
 Frc consts  --      1.0788                 2.3069                 1.4200
 IR Inten    --     29.2905                37.5800                 0.7870

                     43                     44                     45
                      A                      A                      A
 Frequencies --    760.1346               767.9378               778.7458
 Red. masses --      1.1338                 4.4975                 3.9046
 Frc consts  --      0.3860                 1.5627                 1.3951
 IR Inten    --     20.3201                19.9191                64.8436

                     46                     47                     48
                      A                      A                      A
 Frequencies --    794.7581               813.4032               822.2357
 Red. masses --      6.1020                 1.4132                 1.4979
 Frc consts  --      2.2709                 0.5509                 0.5967
 IR Inten    --     13.3467                83.7518                76.2436

                     49                     50                     51
                      A                      A                      A
 Frequencies --    856.5850               886.3657               893.3583
 Red. masses --      1.4591                 3.9733                 1.5059
 Frc consts  --      0.6308                 1.8392                 0.7081
 IR Inten    --    132.2864                40.2124                52.6573

                     52                     53                     54
                      A                      A                      A
 Frequencies --    907.4206               924.3801               946.8980
 Red. masses --      1.1568                 2.0499                 3.5863
 Frc consts  --      0.5612                 1.0320                 1.8946
 IR Inten    --      2.1010                 4.1825                17.6581

                     55                     56                     57
                      A                      A                      A
 Frequencies --    996.3107              1024.5461              1035.2947
 Red. masses --      1.3320                 1.6564                 5.3492
 Frc consts  --      0.7790                 1.0244                 3.3781
 IR Inten    --      2.4855                13.0361                32.8947

                     58                     59                     60
                      A                      A                      A
 Frequencies --   1048.8005              1080.2252              1109.6712
 Red. masses --      4.3185                 2.5865                 2.1398
 Frc consts  --      2.7988                 1.7783                 1.5524
 IR Inten    --     34.9768                16.9422                16.5446

                     61                     62                     63
                      A                      A                      A
 Frequencies --   1111.0129              1128.9050              1134.3006
 Red. masses --      1.9293                 2.9101                11.9977
 Frc consts  --      1.4031                 2.1851                 9.0950
 IR Inten    --      6.1347               417.8130               470.4234

                     64                     65                     66
                      A                      A                      A
 Frequencies --   1147.9114              1161.4328              1175.9624
 Red. masses --      2.6146                 4.2915                 4.0305
 Frc consts  --      2.0299                 3.4107                 3.2839
 IR Inten    --     74.9942               159.8698                16.2844

                     67                     68                     69
                      A                      A                      A
 Frequencies --   1181.3602              1202.4678              1284.4204
 Red. masses --      1.6287                 1.4515                 1.8771
 Frc consts  --      1.3392                 1.2365                 1.8246
 IR Inten    --      0.4227               142.4034               170.9021

                     70                     71                     72
                      A                      A                      A
 Frequencies --   1285.2769              1287.4053              1293.2475
 Red. masses --      1.2556                 1.8519                 1.1696
 Frc consts  --      1.2221                 1.8084                 1.1525
 IR Inten    --     35.2272               553.7065                 1.4483

                     73                     74                     75
                      A                      A                      A
 Frequencies --   1315.4481              1329.6335              1333.7286
 Red. masses --      2.2934                 1.7944                 1.0720
 Frc consts  --      2.3382                 1.8691                 1.1235
 IR Inten    --    170.8476               161.4154                 4.5766

                     76                     77                     78
                      A                      A                      A
 Frequencies --   1347.9653              1355.3571              1367.3567
 Red. masses --      2.5179                 1.9642                 4.8478
 Frc consts  --      2.6956                 2.1259                 5.3402
 IR Inten    --    854.1134                18.3978               507.6120

                     79                     80                     81
                      A                      A                      A
 Frequencies --   1415.9555              1416.2844              1427.2011
 Red. masses --      1.2753                 1.3137                 1.6838
 Frc consts  --      1.5064                 1.5526                 2.0208
 IR Inten    --      8.4572                28.2044                31.1013

                     82                     83                     84
                      A                      A                      A
 Frequencies --   1446.4915              1447.9645              1461.8612
 Red. masses --      3.7144                 1.7001                 1.9770
 Frc consts  --      4.5790                 2.1001                 2.4892
 IR Inten    --    114.7416               308.4734               228.3311

                     85                     86                     87
                      A                      A                      A
 Frequencies --   1485.0353              1500.0784              1502.1265
 Red. masses --      1.0602                 1.0378                 1.0387
 Frc consts  --      1.3775                 1.3760                 1.3808
 IR Inten    --      5.9774                13.1735                13.5870

                     88                     89                     90
                      A                      A                      A
 Frequencies --   1505.6435              1509.4044              1528.9464
 Red. masses --      1.0945                 1.0783                 1.1092
 Frc consts  --      1.4618                 1.4474                 1.5278
 IR Inten    --     64.4635                 1.9251                60.1538

                     91                     92                     93
                      A                      A                      A
 Frequencies --   1539.5296              1557.6165              1586.6873
 Red. masses --      6.3119                 3.2344                 3.3042
 Frc consts  --      8.8142                 4.6235                 4.9012
 IR Inten    --    845.6512               302.4100               233.3592

                     94                     95                     96
                      A                      A                      A
 Frequencies --   1607.7992              1645.1369              1685.3009
 Red. masses --      1.9062                 7.2750                 5.3895
 Frc consts  --      2.9033                11.6007                 9.0189
 IR Inten    --   1583.8006               537.9614               226.4794

                     97                     98                     99
                      A                      A                      A
 Frequencies --   1721.5485              3063.2891              3066.3832
 Red. masses --      1.8647                 1.0582                 1.0390
 Frc consts  --      3.2561                 5.8503                 5.7559
 IR Inten    --    558.3657                13.3850                30.2277

                    100                    101                    102
                      A                      A                      A
 Frequencies --   3071.1930              3074.7066              3078.7360
 Red. masses --      1.0587                 1.0368                 1.0624
 Frc consts  --      5.8833                 5.7750                 5.9330
 IR Inten    --    114.5778                45.5875                17.6611

                    103                    104                    105
                      A                      A                      A
 Frequencies --   3092.9632              3112.0885              3112.4943
 Red. masses --      1.1040                 1.1011                 1.1062
 Frc consts  --      6.2223                 6.2834                 6.3139
 IR Inten    --      6.5369                 6.4730                41.0312

                    106                    107                    108
                      A                      A                      A
 Frequencies --   3135.1991              3142.8097              3142.8780
 Red. masses --      1.1042                 1.1025                 1.1024
 Frc consts  --      6.3947                 6.4162                 6.4156
 IR Inten    --     99.6931                53.8591                43.3718

                    109                    110                    111
                      A                      A                      A
 Frequencies --   3148.6164              3227.1442              3247.8101
 Red. masses --      1.1036                 1.0916                 1.0931
 Frc consts  --      6.4462                 6.6978                 6.7936
 IR Inten    --     55.8797                 1.3413               244.7462

                    112                    113                    114
                      A                      A                      A
 Frequencies --   3248.5122              3292.2533              3364.0234
 Red. masses --      1.0889                 1.0922                 1.0861
 Frc consts  --      6.7704                 6.9749                 7.2414
 IR Inten    --    919.8828                19.4155              1270.6679

 - Thermochemistry -
 -------------------
 Temperature   298.150 Kelvin.  Pressure   1.00000 Atm.
 Atom     1 has atomic number  6 and mass  12.00000

 Molecular mass:   353.08798 amu.
 Principal axes and moments of inertia in atomic units:
                           1         2         3
     Eigenvalues --  5021.32951********************
           X            1.00000  -0.00165  -0.00011
           Y            0.00165   1.00000   0.00055
           Z            0.00011  -0.00055   1.00000
 This molecule is an asymmetric top.
 Rotational symmetry number  1.
 Warning -- assumption of classical behavior for rotation
           may cause significant error
 Rotational temperatures (Kelvin)      0.01725     0.00449     0.00362
 Rotational constants (GHZ):           0.35942     0.09348     0.07549
 Zero-point vibrational energy     802330.8 (Joules/Mol)
                                  191.76167 (Kcal/Mol)
 Warning -- explicit consideration of  36 degrees of freedom as
           vibrations may cause significant error
 Vibrational temperatures:     15.01    25.49    39.58    43.95    62.00
          (Kelvin)             72.11    79.55    88.29    90.08    92.95
                              113.76   135.66   157.45   181.56   226.69
                              232.64   239.13   263.13   303.40   342.44
                              358.52   359.56   382.43   427.84   460.43
                              495.66   555.05   602.41   611.14   651.27
                              677.25   736.53   750.36   811.99   837.90
                              858.95   907.21   915.65   937.12   945.24
                             1031.43  1063.40  1093.66  1104.89  1120.44
                             1143.48  1170.30  1183.01  1232.43  1275.28
                             1285.34  1305.57  1329.98  1362.37  1433.47
                             1474.09  1489.56  1508.99  1554.20  1596.57
                             1598.50  1624.24  1632.00  1651.59  1671.04
                             1691.95  1699.71  1730.08  1847.99  1849.22
                             1852.29  1860.69  1892.63  1913.04  1918.94
                             1939.42  1950.05  1967.32  2037.24  2037.71
                             2053.42  2081.18  2083.30  2103.29  2136.63
                             2158.28  2161.22  2166.28  2171.69  2199.81
                             2215.04  2241.06  2282.89  2313.26  2366.98
                             2424.77  2476.92  4407.38  4411.84  4418.76
                             4423.81  4429.61  4450.08  4477.60  4478.18
                             4510.85  4521.80  4521.89  4530.15  4643.13
                             4672.87  4673.88  4736.81  4840.07

 Zero-point correction=                           0.305592 (Hartree/Particle)
 Thermal correction to Energy=                    0.330446
 Thermal correction to Enthalpy=                  0.331390
 Thermal correction to Gibbs Free Energy=         0.244500
 Sum of electronic and zero-point Energies=          -1638.442191
 Sum of electronic and thermal Energies=             -1638.417337
 Sum of electronic and thermal Enthalpies=           -1638.416393
 Sum of electronic and thermal Free Energies=        -1638.503282

                     E (Thermal)             CV                S
                      KCal/Mol        Cal/Mol-Kelvin    Cal/Mol-Kelvin
 Total                  207.358             86.421            182.874
 Electronic               0.000              0.000              0.000
 Translational            0.889              2.981             43.478
 Rotational               0.889              2.981             36.092
 Vibrational            205.580             80.459            103.303
 Vibration     1          0.593              1.987              7.928
 Vibration     2          0.593              1.986              6.875
 Vibration     3          0.593              1.984              6.001
 Vibration     4          0.594              1.984              5.794
 Vibration     5          0.595              1.980              5.112
 Vibration     6          0.595              1.978              4.813
 Vibration     7          0.596              1.975              4.619
 Vibration     8          0.597              1.973              4.413
 Vibration     9          0.597              1.972              4.373
 Vibration    10          0.597              1.971              4.311
 Vibration    11          0.600              1.963              3.914
 Vibration    12          0.603              1.953              3.569
 Vibration    13          0.606              1.942              3.279
 Vibration    14          0.611              1.927              3.003
 Vibration    15          0.621              1.894              2.579
 Vibration    16          0.622              1.889              2.530
 Vibration    17          0.624              1.884              2.478
 Vibration    18          0.630              1.863              2.299
 Vibration    19          0.643              1.824              2.036
 Vibration    20          0.656              1.782              1.818
 Vibration    21          0.662              1.764              1.736
 Vibration    22          0.663              1.763              1.731
 Vibration    23          0.672              1.736              1.623
 Vibration    24          0.691              1.679              1.432
 Vibration    25          0.706              1.635              1.310
 Vibration    26          0.723              1.586              1.191
 Vibration    27          0.754              1.501              1.016
 Vibration    28          0.782              1.430              0.896
 Vibration    29          0.787              1.416              0.876
 Vibration    30          0.811              1.355              0.788
 Vibration    31          0.828              1.315              0.736
 Vibration    32          0.867              1.224              0.629
 Vibration    33          0.876              1.202              0.606
 Vibration    34          0.920              1.108              0.515
 Vibration    35          0.939              1.069              0.481
 Vibration    36          0.955              1.038              0.455

 Normal termination of Gaussian 09 at Thu Nov 14 23:20:04 2019.
