 Gaussian 16, Revision C.01,
 Gaussian 16:  ES64L-G16RevC.01  3-Jul-2019

 ----------------------------------------------------------------------
 # DSDPBEP86/AUG-cc-PVTZ SCF=Tight INT(grid=ultrafine) Pop=NBO MaxDisk=
 1400000MB
 ----------------------------------------------------------------------

 ----------------------------------
 CP19_carboxy.DSDPBEP86_AUG-cc-PVTZ
 ----------------------------------
 Symbolic Z-matrix:
 Charge = -1 Multiplicity = 1

                         Standard orientation:
 ---------------------------------------------------------------------
 Center     Atomic      Atomic             Coordinates (Angstroms)
 Number     Number       Type             X           Y           Z
 ---------------------------------------------------------------------
      1          6           0       -0.623104   -0.090921   -0.020167
      2          7           0        0.737335   -0.270013   -0.026275
      3          6           0        1.430948   -1.475837    0.022761
      4          8           0        0.890253   -2.574861    0.077508
      5          7           0        2.771680   -1.301477   -0.003902
      6          6           0        3.657579   -2.438368    0.102838
      7          6           0        5.085305   -2.011548   -0.214122
      8          6           0        6.065131   -3.171199   -0.067676
      9          6           0       -1.567393   -1.133828    0.019510
     10          6           0       -2.916390   -0.828509    0.019363
     11          6           0       -3.389753    0.483353   -0.019347
     12          6           0       -2.440708    1.509475   -0.058555
     13          6           0       -1.088899    1.239933   -0.059473
     14          1           0        1.295891    0.605976   -0.062179
     15          1           0        3.186471   -0.357834    0.031355
     16          1           0        3.325872   -3.220771   -0.587217
     17          1           0        3.609651   -2.874066    1.110628
     18          1           0        5.368044   -1.183028    0.441702
     19          1           0        5.115820   -1.610749   -1.231699
     20          1           0        6.066168   -3.559580    0.954862
     21          1           0        7.086093   -2.864827   -0.306612
     22          1           0        5.801282   -3.998764   -0.732865
     23          1           0       -1.236500   -2.160438    0.050028
     24         17           0       -4.040969   -2.170957    0.068333
     25          6           0       -4.847745    0.806770   -0.019937
     26          1           0       -2.778029    2.538127   -0.088940
     27          1           0       -0.358467    2.041855   -0.089493
     28          9           0       -5.063785    2.136125   -0.061565
     29          9           0       -5.505925    0.290189   -1.075996
     30          9           0       -5.491634    0.359995    1.076051
     31          8           0        2.030063    2.172874   -0.099673
     32          8           0        4.043399    1.218779    0.102344
     33          6           0        3.283370    2.206996    0.003646
     34          6           0        3.915896    3.606912    0.005585
     35          6           0        5.432936    3.608351    0.131151
     36          1           0        3.450136    4.167992    0.821827
     37          1           0        3.594014    4.105107   -0.914302
     38          1           0        5.744413    3.117174    1.054489
     39          1           0        5.833080    4.626987    0.126875
     40          1           0        5.888764    3.052941   -0.690172
 ---------------------------------------------------------------------

 SCF Done:  E(RDSDPBEP86) =  -1634.82623215     A.U. after   14 cycles
 E2(DSDPBEP86) =    -0.2209739264D+01 E(DSDPBEP86) =    -0.16370359714127D+04

 The electronic state is 1-A.
 Alpha  occ. eigenvalues -- -103.47985 -25.62084 -25.61412 -25.61410 -19.84561
 Alpha  occ. eigenvalues --  -19.82226 -19.81954 -14.98412 -14.96354 -10.99399
 Alpha  occ. eigenvalues --  -10.83552 -10.80464 -10.78993 -10.78296 -10.74854
 Alpha  occ. eigenvalues --  -10.74550 -10.73799 -10.72344 -10.72012 -10.71955
 Alpha  occ. eigenvalues --  -10.71213 -10.69817 -10.69719 -10.05496  -7.63170
 Alpha  occ. eigenvalues --   -7.62712  -7.62693  -1.48135  -1.38852  -1.38384
 Alpha  occ. eigenvalues --   -1.14898  -1.12734  -1.03059  -1.02499  -0.99611
 Alpha  occ. eigenvalues --   -0.97952  -0.91709  -0.86385  -0.84674  -0.82389
 Alpha  occ. eigenvalues --   -0.81241  -0.77140  -0.73809  -0.68655  -0.67536
 Alpha  occ. eigenvalues --   -0.66811  -0.64273  -0.64001  -0.63445  -0.61026
 Alpha  occ. eigenvalues --   -0.60101  -0.55709  -0.53922  -0.52908  -0.52648
 Alpha  occ. eigenvalues --   -0.51036  -0.49148  -0.48669  -0.48304  -0.48214
 Alpha  occ. eigenvalues --   -0.47234  -0.46610  -0.46540  -0.45072  -0.44916
 Alpha  occ. eigenvalues --   -0.44155  -0.43983  -0.43503  -0.42648  -0.41333
 Alpha  occ. eigenvalues --   -0.40862  -0.39930  -0.38829  -0.38505  -0.37130
 Alpha  occ. eigenvalues --   -0.37094  -0.35824  -0.35395  -0.34168  -0.34120
 Alpha  occ. eigenvalues --   -0.33248  -0.32481  -0.31788  -0.31382  -0.28977
 Alpha  occ. eigenvalues --   -0.26211  -0.22845  -0.22542  -0.22481  -0.22108
 Alpha  occ. eigenvalues --   -0.21620  -0.17286
 Alpha virt. eigenvalues --    0.08135   0.08804   0.09694   0.10025   0.10221
 Alpha virt. eigenvalues --    0.10899   0.11027   0.11356   0.11650   0.12577
 Alpha virt. eigenvalues --    0.12666   0.12986   0.13225   0.13375   0.13831

 Mulliken charges:
               1
     1  C    0.928939
     2  N   -0.394938
     3  C   -0.040006
     4  O   -0.969299
     5  N   -0.338423
     6  C   -0.491943
     7  C   -0.409175
     8  C   -1.021216
     9  C   -1.076202
    10  C    1.048359
    11  C    0.041374
    12  C   -0.752212
    13  C   -0.855711
    14  H    0.790948
    15  H    0.904923
    16  H    0.353976
    17  H    0.241977
    18  H    0.285287
    19  H    0.224733
    20  H    0.269132
    21  H    0.268826
    22  H    0.270443
    23  H    0.430299
    24  Cl  -0.520911
    25  C    1.203514
    26  H    0.451273
    27  H    0.510247
    28  F   -0.383804
    29  F   -0.418351
    30  F   -0.418559
    31  O   -0.917670
    32  O   -0.825728
    33  C    0.656424
    34  C   -0.283337
    35  C   -0.927816
    36  H    0.193338
    37  H    0.191093
    38  H    0.251453
    39  H    0.269546
    40  H    0.259197
 Sum of Mulliken charges =  -1.00000

 Dipole moment (field-independent basis, Debye):
    X=             -1.4791    Y=              0.1699    Z=             -0.1122  Tot=              1.4931
 Quadrupole moment (field-independent basis, Debye-Ang):
   XX=           -216.6610   YY=           -168.8170   ZZ=           -147.1980
   XY=             -9.9066   XZ=             -0.5128   YZ=              0.5891

 Summary of Natural Population Analysis:

                                       Natural Population
                Natural  -----------------------------------------------
    Atom  No    Charge         Core      Valence    Rydberg      Total
 -----------------------------------------------------------------------
      C    1    0.26259      1.99913     3.70970    0.02858     5.73741
      N    2   -0.69132      1.99934     5.66674    0.02525     7.69132
      C    3    0.89627      1.99945     3.06796    0.03632     5.10373
      O    4   -0.75799      1.99977     6.72778    0.03044     8.75799
      N    5   -0.70482      1.99940     5.68646    0.01896     7.70482
      C    6   -0.13613      1.99944     4.11251    0.02418     6.13613
      C    7   -0.36942      1.99950     4.34939    0.02053     6.36942
      C    8   -0.54382      1.99954     4.52948    0.01480     6.54382
      C    9   -0.29364      1.99902     4.27111    0.02351     6.29364
      C   10   -0.00211      1.99870     3.94949    0.05392     6.00211
      C   11   -0.17413      1.99881     4.13345    0.04188     6.17413
      C   12   -0.17569      1.99928     4.13318    0.04322     6.17569
      C   13   -0.25882      1.99918     4.23956    0.02008     6.25882
      H   14    0.46331      0.00000     0.53052    0.00618     0.53669
      H   15    0.45405      0.00000     0.53945    0.00650     0.54595
      H   16    0.17611      0.00000     0.82065    0.00323     0.82389
      H   17    0.15598      0.00000     0.84094    0.00308     0.84402
      H   18    0.19830      0.00000     0.79828    0.00342     0.80170
      H   19    0.18146      0.00000     0.81490    0.00364     0.81854
      H   20    0.17767      0.00000     0.81984    0.00249     0.82233
      H   21    0.18204      0.00000     0.81573    0.00224     0.81796
      H   22    0.17640      0.00000     0.82115    0.00245     0.82360
      H   23    0.26613      0.00000     0.72979    0.00408     0.73387
     Cl   24   -0.02798      9.99965     7.01015    0.01818    17.02798
      C   25    1.11034      1.99922     2.83532    0.05511     4.88966
      H   26    0.21040      0.00000     0.78639    0.00321     0.78960
      H   27    0.24433      0.00000     0.75238    0.00329     0.75567
      F   28   -0.37660      1.99993     7.36883    0.00784     9.37660
      F   29   -0.37417      1.99992     7.36537    0.00888     9.37417
      F   30   -0.37417      1.99992     7.36536    0.00888     9.37417
      O   31   -0.85783      1.99975     6.83513    0.02295     8.85783
      O   32   -0.83304      1.99976     6.80834    0.02495     8.83304
      C   33    0.89183      1.99963     3.06371    0.04483     5.10817
      C   34   -0.46731      1.99941     4.44575    0.02215     6.46731
      C   35   -0.54635      1.99955     4.53068    0.01612     6.54635
      H   36    0.18790      0.00000     0.80896    0.00314     0.81210
      H   37    0.18794      0.00000     0.80892    0.00314     0.81206
      H   38    0.18956      0.00000     0.80761    0.00282     0.81044
      H   39    0.16339      0.00000     0.83363    0.00298     0.83661
      H   40    0.18968      0.00000     0.80750    0.00283     0.81032
 =======================================================================
   * Total *   -0.99965     53.98729   129.34210    0.67025   183.99965

 Normal termination of Gaussian 16 at Tue Nov  3 15:36:18 2020.
