 Gaussian 09, Revision E.01,

 ----------------------------------------------------------------------
 # M062X/6-311+G* SCF=Tight INT(grid=ultrafine) OPT IOP(2/17=4) Empiric
 alDispersion=GD3 maxdisk=2684354560
 ----------------------------------------------------------------------

 --------------------------------------
 CP19_c2_carboxy.M062X_6-311pGd_opt_GD3
 --------------------------------------
 Symbolic Z-matrix:
 Charge = -1 Multiplicity = 1

 SCF Done:  E(RM062X) =  -1638.67680715     A.U. after   17 cycles
 Optimization completed on the basis of negligible forces.
    -- Stationary point found.
 Normal termination of Gaussian 09 at Thu Nov 14 21:52:42 2019.
 Gaussian 09:  ES64L-G09RevE.01 30-Nov-2015

 ----------------------------------------------------------------------
 # M062X/6-311+G* SCF=Tight INT(grid=ultrafine) EmpiricalDispersion=GD3
  Freq=Noraman maxdisk=2684354560 geom=check guess=read IOP(2/17=4)
 ----------------------------------------------------------------------

 --------------------------------------
 CP19_c2_carboxy.M062X_6-311pGd_opt_GD3
 --------------------------------------
 Structure from the checkpoint file:  "CP19_c2_carboxy.M062X_6-311pGd_opt_GD3.chk"
 Charge = -1 Multiplicity = 1

                         Standard orientation:
 ---------------------------------------------------------------------
 Center     Atomic      Atomic             Coordinates (Angstroms)
 Number     Number       Type             X           Y           Z
 ---------------------------------------------------------------------
      1          6           0       -0.625519   -0.664305   -0.018506
      2          7           0        0.746043   -0.627171   -0.037161
      3          6           0        1.618129   -1.711416    0.005609
      4          8           0        1.257003   -2.882275    0.056712
      5          7           0        2.915477   -1.331177   -0.021791
      6          6           0        3.965310   -2.319722    0.074772
      7          6           0        5.317733   -1.660023   -0.162626
      8          6           0        6.461821   -2.660309   -0.033401
      9          6           0       -1.284946    0.584723   -0.050534
     10          6           0       -2.660308    0.643942   -0.035448
     11          6           0       -3.447256   -0.512981    0.010952
     12          6           0       -2.785602   -1.738881    0.042428
     13          6           0       -1.404051   -1.834351    0.028317
     14          1           0        1.164968    0.324367   -0.073877
     15          1           0        3.181034   -0.334958    0.013398
     16          1           0        3.788908   -3.112267   -0.660315
     17          1           0        3.949262   -2.804466    1.060619
     18          1           0        5.445369   -0.834954    0.543964
     19          1           0        5.318873   -1.202938   -1.156612
     20          1           0        6.488552   -3.101440    0.967196
     21          1           0        7.429568   -2.186274   -0.212436
     22          1           0        6.354397   -3.479479   -0.750597
     23          1           0       -0.691307    1.492769   -0.085331
     24         17           0       -3.410068    2.224770   -0.074942
     25          6           0       -4.939375   -0.460795    0.027846
     26          1           0       -3.372786   -2.648461    0.078805
     27          1           0       -0.915489   -2.795609    0.053388
     28          9           0       -5.482841   -1.693396    0.068984
     29          9           0       -5.435303    0.199213    1.092719
     30          9           0       -5.461615    0.139157   -1.059593
     31          8           0        1.650229    1.972814   -0.110470
     32          8           0        3.789680    1.351300    0.090011
     33          6           0        2.881979    2.206447   -0.005409
     34          6           0        3.282062    3.689135    0.000493
     35          6           0        4.776472    3.933927    0.155374
     36          1           0        2.715063    4.171719    0.802484
     37          1           0        2.903874    4.125395   -0.929426
     38          1           0        5.143498    3.505639    1.089664
     39          1           0        5.008445    5.003437    0.148871
     40          1           0        5.332113    3.453046   -0.651303
 ---------------------------------------------------------------------

 SCF Done:  E(RM062X) =  -1638.67680715     A.U. after    2 cycles

 The electronic state is 1-A.
 Alpha  occ. eigenvalues -- -102.58530 -25.18929 -25.18228 -25.18224 -19.47057
 Alpha  occ. eigenvalues --  -19.44599 -19.44334 -14.65469 -14.63548 -10.71215
 Alpha  occ. eigenvalues --  -10.55404 -10.52325 -10.50798 -10.50325 -10.47382
 Alpha  occ. eigenvalues --  -10.46728 -10.46315 -10.45100 -10.44303 -10.44276
 Alpha  occ. eigenvalues --  -10.43669 -10.41794 -10.41745  -9.72820  -7.45331
 Alpha  occ. eigenvalues --   -7.44662  -7.44647  -1.37771  -1.28483  -1.27987
 Alpha  occ. eigenvalues --   -1.05895  -1.03662  -0.94562  -0.93806  -0.91514
 Alpha  occ. eigenvalues --   -0.90064  -0.84342  -0.79450  -0.77821  -0.75097
 Alpha  occ. eigenvalues --   -0.74426  -0.71214  -0.68043  -0.63109  -0.62406
 Alpha  occ. eigenvalues --   -0.61441  -0.60092  -0.59523  -0.58601  -0.56904
 Alpha  occ. eigenvalues --   -0.54601  -0.51730  -0.50193  -0.48540  -0.48274
 Alpha  occ. eigenvalues --   -0.46536  -0.45451  -0.44849  -0.44425  -0.44125
 Alpha  occ. eigenvalues --   -0.43795  -0.42704  -0.42165  -0.41723  -0.41342
 Alpha  occ. eigenvalues --   -0.41140  -0.40538  -0.40251  -0.39267  -0.38250
 Alpha  occ. eigenvalues --   -0.37962  -0.36931  -0.35993  -0.35168  -0.34435
 Alpha  occ. eigenvalues --   -0.33916  -0.33036  -0.32442  -0.31759  -0.31096
 Alpha  occ. eigenvalues --   -0.30654  -0.29973  -0.28924  -0.28815  -0.27404
 Alpha  occ. eigenvalues --   -0.23297  -0.21226  -0.20572  -0.20098  -0.19586
 Alpha  occ. eigenvalues --   -0.19387  -0.16376
 Alpha virt. eigenvalues --    0.09246   0.10012   0.10139   0.10358   0.10640
 Alpha virt. eigenvalues --    0.10917   0.11608   0.11904   0.12111   0.12634
 Alpha virt. eigenvalues --    0.13169   0.13500   0.13790   0.14297   0.14608

 Mulliken charges:
               1
     1  C   -0.860207
     2  N   -0.439358
     3  C    0.099231
     4  O   -0.390002
     5  N   -0.379345
     6  C   -0.496626
     7  C   -0.093014
     8  C   -1.112372
     9  C   -0.678354
    10  C    2.109579
    11  C   -1.717504
    12  C   -0.745605
    13  C   -0.184959
    14  H    0.471756
    15  H    0.457964
    16  H    0.232381
    17  H    0.242115
    18  H    0.278271
    19  H    0.267712
    20  H    0.246576
    21  H    0.253874
    22  H    0.244238
    23  H    0.365629
    24  Cl   0.371304
    25  C    0.993020
    26  H    0.256480
    27  H    0.300420
    28  F   -0.157378
    29  F   -0.048583
    30  F   -0.049469
    31  O   -0.474788
    32  O   -0.422681
    33  C    0.033297
    34  C   -0.190050
    35  C   -1.018429
    36  H    0.244664
    37  H    0.245883
    38  H    0.256309
    39  H    0.230526
    40  H    0.257495
 Sum of Mulliken charges =  -1.00000

 Dipole moment (field-independent basis, Debye):
    X=             -1.2636    Y=             -1.0769    Z=             -0.0164  Tot=              1.6603
 Quadrupole moment (field-independent basis, Debye-Ang):
   XX=           -210.9389   YY=           -170.0774   ZZ=           -148.4559
   XY=             -3.5939   XZ=             -0.6447   YZ=              0.3967

  Exact polarizability: 299.675 -14.306 226.237   1.014  -2.534 133.075
 Approx polarizability: 298.221 -12.669 267.816   1.044  -3.624 178.434

                      1                      2                      3
                      A                      A                      A
 Frequencies --     15.1206                21.6117                28.5741
 Red. masses --      4.8216                 4.6682                 2.3248
 Frc consts  --      0.0006                 0.0013                 0.0011
 IR Inten    --      0.1718                 0.4999                 0.4259

                      4                      5                      6
                      A                      A                      A
 Frequencies --     36.4358                39.3302                46.9123
 Red. masses --      2.3242                 5.2858                 6.1443
 Frc consts  --      0.0018                 0.0048                 0.0080
 IR Inten    --      0.1303                 0.3673                 1.9270

                      7                      8                      9
                      A                      A                      A
 Frequencies --     53.7269                57.1310                62.0290
 Red. masses --      9.4902                 5.1071                 3.9846
 Frc consts  --      0.0161                 0.0098                 0.0090
 IR Inten    --      0.5904                 0.9348                 2.2076

                     10                     11                     12
                      A                      A                      A
 Frequencies --     67.9281                79.0369                96.3373
 Red. masses --      4.6058                 5.4200                 7.2424
 Frc consts  --      0.0125                 0.0199                 0.0396
 IR Inten    --      0.2110                 6.6391                 4.2565

                     13                     14                     15
                      A                      A                      A
 Frequencies --    118.4414               143.3227               166.7013
 Red. masses --      5.0872                 9.3670                 3.6635
 Frc consts  --      0.0420                 0.1134                 0.0600
 IR Inten    --      1.7519                10.5860                 9.3966

                     16                     17                     18
                      A                      A                      A
 Frequencies --    168.5664               185.1069               190.5167
 Red. masses --     11.7293                 5.6682                 4.9227
 Frc consts  --      0.1964                 0.1144                 0.1053
 IR Inten    --      6.2661                 5.8727                 6.3075

                     19                     20                     21
                      A                      A                      A
 Frequencies --    203.8832               213.3586               240.0707
 Red. masses --      6.4129                 1.1348                 2.8170
 Frc consts  --      0.1571                 0.0304                 0.0957
 IR Inten    --      2.0540                 0.5237                 0.1225

                     22                     23                     24
                      A                      A                      A
 Frequencies --    243.3003               265.3963               298.3611
 Red. masses --      1.5157                 6.3540                 3.9799
 Frc consts  --      0.0529                 0.2637                 0.2087
 IR Inten    --      0.1560                 7.0599                12.6159

                     25                     26                     27
                      A                      A                      A
 Frequencies --    324.7568               348.5010               351.0794
 Red. masses --     14.7392                 6.1873                 5.0925
 Frc consts  --      0.9159                 0.4427                 0.3698
 IR Inten    --      5.2647                 7.9575                 8.4946

                     28                     29                     30
                      A                      A                      A
 Frequencies --    424.0141               456.9308               457.8332
 Red. masses --      7.8334                 6.7963                 3.8538
 Frc consts  --      0.8298                 0.8360                 0.4759
 IR Inten    --      0.5761                12.7969                 2.3302

                     31                     32                     33
                      A                      A                      A
 Frequencies --    472.2454               514.9393               525.1960
 Red. masses --      7.9599                 5.6748                 5.5712
 Frc consts  --      1.0459                 0.8866                 0.9054
 IR Inten    --      4.7304                52.6732                 8.7740

                     34                     35                     36
                      A                      A                      A
 Frequencies --    566.3945               583.0219               596.3227
 Red. masses --     13.0633                 1.9376                11.1642
 Frc consts  --      2.4691                 0.3880                 2.3391
 IR Inten    --      0.5085                 0.4610                 2.3991

                     37                     38                     39
                      A                      A                      A
 Frequencies --    638.2812               656.5542               661.7846
 Red. masses --      3.7745                 5.9826                 5.1569
 Frc consts  --      0.9060                 1.5194                 1.3307
 IR Inten    --      7.1322                17.3197                24.1165

                     40                     41                     42
                      A                      A                      A
 Frequencies --    709.2410               740.8302               749.7819
 Red. masses --      7.3258                 4.6406                 1.1001
 Frc consts  --      2.1712                 1.5006                 0.3644
 IR Inten    --      6.2067                 0.0162                 3.3329

                     43                     44                     45
                      A                      A                      A
 Frequencies --    773.0845               779.9516               802.6599
 Red. masses --      4.6954                 2.9928                 6.3306
 Frc consts  --      1.6534                 1.0727                 2.4030
 IR Inten    --      9.0862                33.0248                 7.5055

                     46                     47                     48
                      A                      A                      A
 Frequencies --    817.5036               825.3578               864.9357
 Red. masses --      1.7148                 1.4770                 1.4283
 Frc consts  --      0.6752                 0.5928                 0.6296
 IR Inten    --      0.9765                11.0556                52.5757

                     49                     50                     51
                      A                      A                      A
 Frequencies --    889.1589               903.0374               911.5423
 Red. masses --      4.0829                 1.1756                 2.6354
 Frc consts  --      1.9019                 0.5648                 1.2902
 IR Inten    --     58.6327                 2.3911                27.1965

                     52                     53                     54
                      A                      A                      A
 Frequencies --    926.8890               941.5945               980.5646
 Red. masses --      1.3536                 2.5965                 1.1301
 Frc consts  --      0.6852                 1.3563                 0.6402
 IR Inten    --      1.1010                17.7351                99.1999

                     55                     56                     57
                      A                      A                      A
 Frequencies --    995.0602              1019.5923              1037.1250
 Red. masses --      1.2777                 1.6872                 5.6574
 Frc consts  --      0.7454                 1.0334                 3.5853
 IR Inten    --      7.7004                 3.7742                19.7821

                     58                     59                     60
                      A                      A                      A
 Frequencies --   1051.9406              1081.9367              1108.2112
 Red. masses --      3.8343                 2.8506                 1.7939
 Frc consts  --      2.4999                 1.9660                 1.2981
 IR Inten    --     28.5216                17.7131                 1.0101

                     61                     62                     63
                      A                      A                      A
 Frequencies --   1110.2382              1138.5935              1155.9524
 Red. masses --      2.3668                 2.7955                 2.5439
 Frc consts  --      1.7188                 2.1352                 2.0028
 IR Inten    --      3.7156               328.2403                19.8501

                     64                     65                     66
                      A                      A                      A
 Frequencies --   1162.1368              1173.8058              1181.4584
 Red. masses --      2.6024                12.7373                 1.6884
 Frc consts  --      2.0708                10.3400                 1.3886
 IR Inten    --     57.1303               282.0265                 3.9924

                     67                     68                     69
                      A                      A                      A
 Frequencies --   1194.1618              1207.0200              1280.1596
 Red. masses --      3.9616                 1.9875                 1.1870
 Frc consts  --      3.3285                 1.7060                 1.1461
 IR Inten    --      5.9752                89.6266                 2.8590

                     70                     71                     72
                      A                      A                      A
 Frequencies --   1284.1161              1289.5492              1315.7955
 Red. masses --      1.7776                 1.1852                 1.6169
 Frc consts  --      1.7270                 1.1613                 1.6493
 IR Inten    --    213.6344                 0.5316               366.3833

                     73                     74                     75
                      A                      A                      A
 Frequencies --   1327.0482              1329.5090              1335.8067
 Red. masses --      2.1308                 2.2204                 1.1733
 Frc consts  --      2.2109                 2.3124                 1.2335
 IR Inten    --     92.7111                28.8521                72.9656

                     76                     77                     78
                      A                      A                      A
 Frequencies --   1354.1264              1370.6356              1387.8505
 Red. masses --      2.3306                 2.3199                 4.0237
 Frc consts  --      2.5179                 2.5678                 4.5663
 IR Inten    --    659.0194                47.7174               421.7702

                     79                     80                     81
                      A                      A                      A
 Frequencies --   1417.2232              1422.4903              1432.4514
 Red. masses --      1.3128                 1.2868                 1.6651
 Frc consts  --      1.5535                 1.5342                 2.0130
 IR Inten    --     17.6200                 4.6879                 8.0051

                     82                     83                     84
                      A                      A                      A
 Frequencies --   1454.4053              1462.1284              1484.2227
 Red. masses --      3.6401                 4.1731                 1.1913
 Frc consts  --      4.5367                 5.2563                 1.5462
 IR Inten    --     28.6230               391.0648                22.7365

                     85                     86                     87
                      A                      A                      A
 Frequencies --   1505.7812              1508.9786              1520.2087
 Red. masses --      1.0683                 1.0376                 1.0844
 Frc consts  --      1.4272                 1.3920                 1.4766
 IR Inten    --      9.2836                 6.4785                44.8005

                     88                     89                     90
                      A                      A                      A
 Frequencies --   1522.8673              1525.3965              1540.3186
 Red. masses --      1.0402                 1.0648                 1.0847
 Frc consts  --      1.4214                 1.4598                 1.5162
 IR Inten    --      7.9842                 2.1752                 9.1075

                     91                     92                     93
                      A                      A                      A
 Frequencies --   1560.3302              1605.1429              1631.0300
 Red. masses --      3.6827                 3.9328                 2.6721
 Frc consts  --      5.2826                 5.9701                 4.1882
 IR Inten    --    104.6571               110.5970                 2.8965

                     94                     95                     96
                      A                      A                      A
 Frequencies --   1668.4203              1688.7562              1716.2294
 Red. masses --      6.2815                 2.3773                 2.9636
 Frc consts  --     10.3021                 3.9945                 5.1430
 IR Inten    --    985.3380               394.6614               513.4009

                     97                     98                     99
                      A                      A                      A
 Frequencies --   1794.2859              3024.7427              3042.9758
 Red. masses --      2.5924                 1.0689                 1.0963
 Frc consts  --      4.9174                 5.7619                 5.9812
 IR Inten    --    379.5104                64.2603              1133.5272

                    100                    101                    102
                      A                      A                      A
 Frequencies --   3056.0535              3060.3102              3071.7680
 Red. masses --      1.0368                 1.0438                 1.0921
 Frc consts  --      5.7050                 5.7594                 6.0716
 IR Inten    --     48.6818                15.8824                45.1876

                    103                    104                    105
                      A                      A                      A
 Frequencies --   3072.8001              3078.8678              3103.1609
 Red. masses --      1.0613                 1.0622                 1.1012
 Frc consts  --      5.9041                 5.9325                 6.2476
 IR Inten    --     16.0360                23.1721                10.9016

                    106                    107                    108
                      A                      A                      A
 Frequencies --   3105.9011              3130.0986              3130.1411
 Red. masses --      1.1023                 1.0994                 1.0988
 Frc consts  --      6.2649                 6.3460                 6.3430
 IR Inten    --      0.8160                62.2581                35.6088

                    109                    110                    111
                      A                      A                      A
 Frequencies --   3130.5432              3150.3523              3212.9353
 Red. masses --      1.1026                 1.1023                 1.0938
 Frc consts  --      6.3664                 6.4455                 6.6525
 IR Inten    --     48.2824                37.1091                 6.8759

                    112                    113                    114
                      A                      A                      A
 Frequencies --   3231.2323              3232.7337              3290.8751
 Red. masses --      1.0900                 1.0902                 1.0923
 Frc consts  --      6.7052                 6.7129                 6.9699
 IR Inten    --   1379.2115                18.5859                 7.8555

 - Thermochemistry -
 -------------------
 Temperature   298.150 Kelvin.  Pressure   1.00000 Atm.
 Atom     1 has atomic number  6 and mass  12.00000

 Molecular mass:   353.08798 amu.
 Principal axes and moments of inertia in atomic units:
                           1         2         3
     Eigenvalues --  5024.44380********************
           X            1.00000   0.00053   0.00016
           Y           -0.00053   1.00000   0.00123
           Z           -0.00016  -0.00123   1.00000
 This molecule is an asymmetric top.
 Rotational symmetry number  1.
 Warning -- assumption of classical behavior for rotation
           may cause significant error
 Rotational temperatures (Kelvin)      0.01724     0.00472     0.00377
 Rotational constants (GHZ):           0.35919     0.09832     0.07847
 Zero-point vibrational energy     805763.7 (Joules/Mol)
                                  192.58215 (Kcal/Mol)
 Warning -- explicit consideration of  36 degrees of freedom as
           vibrations may cause significant error
 Vibrational temperatures:     21.76    31.09    41.11    52.42    56.59
          (Kelvin)             67.50    77.30    82.20    89.25    97.73
                              113.72   138.61   170.41   206.21   239.85
                              242.53   266.33   274.11   293.34   306.98
                              345.41   350.05   381.85   429.27   467.25
                              501.41   505.12   610.06   657.42   658.72
                              679.45   740.88   755.64   814.91   838.84
                              857.97   918.34   944.63   952.16  1020.44
                             1065.89  1078.77  1112.29  1122.17  1154.85
                             1176.20  1187.50  1244.45  1279.30  1299.27
                             1311.50  1333.58  1354.74  1410.81  1431.67
                             1466.96  1492.19  1513.51  1556.66  1594.47
                             1597.38  1638.18  1663.16  1672.05  1688.84
                             1699.85  1718.13  1736.63  1841.86  1847.55
                             1855.37  1893.13  1909.32  1912.86  1921.93
                             1948.28  1972.04  1996.80  2039.07  2046.64
                             2060.98  2092.56  2103.67  2135.46  2166.48
                             2171.08  2187.24  2191.06  2194.70  2216.17
                             2244.96  2309.44  2346.69  2400.48  2429.74
                             2469.27  2581.57  4351.92  4378.16  4396.97
                             4403.10  4419.58  4421.07  4429.80  4464.75
                             4468.69  4503.51  4503.57  4504.15  4532.65
                             4622.69  4649.02  4651.18  4734.83

 Zero-point correction=                           0.306899 (Hartree/Particle)
 Thermal correction to Energy=                    0.331539
 Thermal correction to Enthalpy=                  0.332483
 Thermal correction to Gibbs Free Energy=         0.246626
 Sum of electronic and zero-point Energies=          -1638.369908
 Sum of electronic and thermal Energies=             -1638.345269
 Sum of electronic and thermal Enthalpies=           -1638.344324
 Sum of electronic and thermal Free Energies=        -1638.430181

                     E (Thermal)             CV                S
                      KCal/Mol        Cal/Mol-Kelvin    Cal/Mol-Kelvin
 Total                  208.044             85.543            180.701
 Electronic               0.000              0.000              0.000
 Translational            0.889              2.981             43.478
 Rotational               0.889              2.981             36.004
 Vibrational            206.266             79.582            101.218
 Vibration     1          0.593              1.986              7.190
 Vibration     2          0.593              1.985              6.480
 Vibration     3          0.593              1.984              5.926
 Vibration     4          0.594              1.982              5.444
 Vibration     5          0.594              1.981              5.293
 Vibration     6          0.595              1.979              4.943
 Vibration     7          0.596              1.976              4.675
 Vibration     8          0.596              1.975              4.554
 Vibration     9          0.597              1.972              4.392
 Vibration    10          0.598              1.970              4.213
 Vibration    11          0.600              1.963              3.915
 Vibration    12          0.603              1.952              3.527
 Vibration    13          0.609              1.934              3.126
 Vibration    14          0.616              1.910              2.759
 Vibration    15          0.624              1.883              2.472
 Vibration    16          0.625              1.881              2.451
 Vibration    17          0.631              1.860              2.276
 Vibration    18          0.634              1.853              2.223
 Vibration    19          0.640              1.834              2.098
 Vibration    20          0.644              1.821              2.015
 Vibration    21          0.657              1.779              1.802
 Vibration    22          0.659              1.774              1.779
 Vibration    23          0.671              1.736              1.626
 Vibration    24          0.691              1.677              1.426
 Vibration    25          0.709              1.626              1.286
 Vibration    26          0.726              1.578              1.173
 Vibration    27          0.728              1.573              1.161
 Vibration    28          0.786              1.418              0.878
 Vibration    29          0.815              1.346              0.775
 Vibration    30          0.816              1.344              0.772
 Vibration    31          0.829              1.312              0.731
 Vibration    32          0.870              1.217              0.622
 Vibration    33          0.880              1.194              0.598
 Vibration    34          0.922              1.104              0.511
 Vibration    35          0.940              1.068              0.480
 Vibration    36          0.954              1.040              0.456

 Optimization completed on the basis of negligible forces.
    -- Stationary point found.
 Normal termination of Gaussian 09 at Thu Nov 14 23:25:09 2019.
