 Gaussian 09, Revision E.01,

 ----------------------------------------------------------------------
 # M062X/6-311+G* SCF=Tight INT(grid=ultrafine) OPT IOP(2/17=4) Empiric
 alDispersion=GD3 SCRF=(SMD,Solvent=h2o) maxdisk=2684354560
 ----------------------------------------------------------------------

 --------------------------------------------
 CP19_c2_carboxy.M062X_6-311pGd_opt_water_GD3
 --------------------------------------------
 Symbolic Z-matrix:
 Charge = -1 Multiplicity = 1

 SCF Done:  E(RM062X) =  -1638.74769591     A.U. after   15 cycles
 Optimization completed.
    -- Stationary point found.
 Normal termination of Gaussian 09 at Thu Nov 14 21:55:37 2019.
 Gaussian 09:  ES64L-G09RevE.01 30-Nov-2015

 ----------------------------------------------------------------------
 # M062X/6-311+G* SCF=Tight INT(grid=ultrafine) SCRF=(SMD,Solvent=h2o)
 EmpiricalDispersion=GD3 Freq=Noraman maxdisk=2684354560 geom=check gue
 ss=read IOP(2/17=4)
 ----------------------------------------------------------------------

 --------------------------------------------
 CP19_c2_carboxy.M062X_6-311pGd_opt_water_GD3
 --------------------------------------------
 Structure from the checkpoint file:  "CP19_c2_carboxy.M062X_6-311pGd_opt_water_GD3.chk"
 Charge = -1 Multiplicity = 1

                         Standard orientation:
 ---------------------------------------------------------------------
 Center     Atomic      Atomic             Coordinates (Angstroms)
 Number     Number       Type             X           Y           Z
 ---------------------------------------------------------------------
      1          6           0        0.663626   -0.640617   -0.061778
      2          7           0       -0.722299   -0.610688   -0.045150
      3          6           0       -1.576952   -1.694288    0.064370
      4          8           0       -1.183338   -2.859927    0.196248
      5          7           0       -2.879508   -1.362870    0.029338
      6          6           0       -3.912238   -2.380340    0.159720
      7          6           0       -5.290601   -1.741595    0.098341
      8          6           0       -6.388402   -2.789688    0.231833
      9          6           0        1.319009    0.577063    0.190832
     10          6           0        2.696154    0.643956    0.165053
     11          6           0        3.474275   -0.484686   -0.105086
     12          6           0        2.817035   -1.684031   -0.361860
     13          6           0        1.433627   -1.775348   -0.348409
     14          1           0       -1.149245    0.323346    0.032811
     15          1           0       -3.163816   -0.391812   -0.131227
     16          1           0       -3.787513   -2.911511    1.108374
     17          1           0       -3.807083   -3.120416   -0.640037
     18          1           0       -5.397934   -1.203909   -0.848998
     19          1           0       -5.380536   -0.998403    0.896827
     20          1           0       -6.325843   -3.528203   -0.571732
     21          1           0       -7.378399   -2.331823    0.188018
     22          1           0       -6.308479   -3.323143    1.182674
     23          1           0        0.737916    1.465831    0.408445
     24         17           0        3.441974    2.188529    0.491878
     25          6           0        4.968610   -0.424036   -0.130678
     26          1           0        3.396905   -2.570644   -0.586619
     27          1           0        0.960672   -2.718583   -0.569943
     28          9           0        5.514968   -1.614077   -0.416360
     29          9           0        5.438867    0.440461   -1.050569
     30          9           0        5.493837   -0.037966    1.048383
     31          8           0       -1.803915    2.012262    0.226266
     32          8           0       -3.824966    1.339062   -0.425436
     33          6           0       -3.010814    2.233668   -0.082032
     34          6           0       -3.475007    3.684954   -0.023189
     35          6           0       -4.925478    3.917198   -0.415611
     36          1           0       -2.801041    4.260802   -0.664610
     37          1           0       -3.286340    4.037228    0.995568
     38          1           0       -5.116268    3.592534   -1.440536
     39          1           0       -5.175624    4.978160   -0.348427
     40          1           0       -5.606624    3.370280    0.239440
 ---------------------------------------------------------------------

 SCF Done:  E(RM062X) =  -1638.74769591     A.U. after    2 cycles

 The electronic state is 1-A.
 Alpha  occ. eigenvalues -- -102.68797 -25.28504 -25.28056 -25.28054 -19.59369
 Alpha  occ. eigenvalues --  -19.57939 -19.57635 -14.77367 -14.75566 -10.81027
 Alpha  occ. eigenvalues --  -10.67615 -10.63889 -10.62746 -10.61153 -10.57769
 Alpha  occ. eigenvalues --  -10.56660 -10.56121 -10.55973 -10.54988 -10.52690
 Alpha  occ. eigenvalues --  -10.52472 -10.51550 -10.51357  -9.83084  -7.55596
 Alpha  occ. eigenvalues --   -7.54922  -7.54906  -1.47611  -1.38277  -1.37839
 Alpha  occ. eigenvalues --   -1.17884  -1.16705  -1.06874  -1.05932  -1.02753
 Alpha  occ. eigenvalues --   -1.00877  -0.94786  -0.89675  -0.87275  -0.85745
 Alpha  occ. eigenvalues --   -0.84882  -0.81341  -0.77632  -0.73243  -0.72767
 Alpha  occ. eigenvalues --   -0.72129  -0.69958  -0.69595  -0.68121  -0.67665
 Alpha  occ. eigenvalues --   -0.65388  -0.63015  -0.61082  -0.58921  -0.58255
 Alpha  occ. eigenvalues --   -0.58166  -0.55659  -0.55316  -0.54871  -0.54265
 Alpha  occ. eigenvalues --   -0.53960  -0.53318  -0.52991  -0.52894  -0.51976
 Alpha  occ. eigenvalues --   -0.51917  -0.51600  -0.50703  -0.50385  -0.49645
 Alpha  occ. eigenvalues --   -0.48397  -0.46490  -0.46281  -0.45527  -0.45422
 Alpha  occ. eigenvalues --   -0.44340  -0.43315  -0.42155  -0.41763  -0.41464
 Alpha  occ. eigenvalues --   -0.39688  -0.39489  -0.39084  -0.38999  -0.38124
 Alpha  occ. eigenvalues --   -0.35895  -0.34006  -0.32949  -0.32506  -0.32341
 Alpha  occ. eigenvalues --   -0.31612  -0.27848
 Alpha virt. eigenvalues --   -0.00489   0.00181   0.01199   0.02185   0.02550
 Alpha virt. eigenvalues --    0.03262   0.03308   0.03477   0.04349   0.04601
 Alpha virt. eigenvalues --    0.04882   0.05111   0.05433   0.05935   0.06262

 Mulliken charges:
               1
     1  C   -0.622453
     2  N   -0.390164
     3  C    0.247932
     4  O   -0.534724
     5  N   -0.447648
     6  C   -0.545424
     7  C   -0.089942
     8  C   -1.163570
     9  C   -0.455393
    10  C    1.509141
    11  C   -1.496922
    12  C   -0.906903
    13  C    0.007788
    14  H    0.474625
    15  H    0.474795
    16  H    0.272864
    17  H    0.273404
    18  H    0.273366
    19  H    0.274911
    20  H    0.268978
    21  H    0.279945
    22  H    0.269006
    23  H    0.349090
    24  Cl   0.389792
    25  C    0.858384
    26  H    0.314664
    27  H    0.307955
    28  F   -0.149395
    29  F   -0.064802
    30  F   -0.065034
    31  O   -0.622405
    32  O   -0.576927
    33  C    0.192965
    34  C   -0.262810
    35  C   -1.029675
    36  H    0.283677
    37  H    0.285704
    38  H    0.269398
    39  H    0.276584
    40  H    0.269223
 Sum of Mulliken charges =  -1.00000

 Dipole moment (field-independent basis, Debye):
    X=              2.0775    Y=             -1.0618    Z=             -0.3452  Tot=              2.3585
 Quadrupole moment (field-independent basis, Debye-Ang):
   XX=           -194.4355   YY=           -161.1213   ZZ=           -148.0563
   XY=              2.1948   XZ=             -4.9821   YZ=              3.2042

  Exact polarizability: 362.120  20.173 307.405   4.549  14.756 200.991
 Approx polarizability: 287.683  12.143 262.496   3.872  12.959 180.870

                      1                      2                      3
                      A                      A                      A
 Frequencies --     12.4798                19.3907                28.3556
 Red. masses --      7.0349                 5.6015                 4.7366
 Frc consts  --      0.0006                 0.0012                 0.0022
 IR Inten    --      0.8442                 2.4405                 1.3697

                      4                      5                      6
                      A                      A                      A
 Frequencies --     30.4612                45.4211                49.3065
 Red. masses --      2.7161                 5.8118                 4.3551
 Frc consts  --      0.0015                 0.0071                 0.0062
 IR Inten    --      1.3500                 5.6292                 4.2852

                      7                      8                      9
                      A                      A                      A
 Frequencies --     54.3256                57.1006                64.9374
 Red. masses --      3.7351                 7.2578                 3.0038
 Frc consts  --      0.0065                 0.0139                 0.0075
 IR Inten    --      2.9213                 0.2240                 3.1066

                     10                     11                     12
                      A                      A                      A
 Frequencies --     69.3560                84.9991                93.4552
 Red. masses --      4.4898                 5.1191                 4.8339
 Frc consts  --      0.0127                 0.0218                 0.0249
 IR Inten    --      3.2219                14.1412                10.4141

                     13                     14                     15
                      A                      A                      A
 Frequencies --    110.7694               134.9258               158.3514
 Red. masses --      5.0494                 8.7013                 6.8805
 Frc consts  --      0.0365                 0.0933                 0.1017
 IR Inten    --      8.3399                26.3720                 9.4842

                     16                     17                     18
                      A                      A                      A
 Frequencies --    162.9499               175.1892               182.6887
 Red. masses --      3.1227                 7.6707                 6.2363
 Frc consts  --      0.0489                 0.1387                 0.1226
 IR Inten    --     13.0829                 3.3579                 4.5863

                     19                     20                     21
                      A                      A                      A
 Frequencies --    203.4558               237.9609               240.1616
 Red. masses --      6.5027                 3.3238                 1.4089
 Frc consts  --      0.1586                 0.1109                 0.0479
 IR Inten    --      1.4156                 1.0049                 0.3598

                     22                     23                     24
                      A                      A                      A
 Frequencies --    241.7745               261.7505               312.5641
 Red. masses --      1.1133                 6.6441                 3.7609
 Frc consts  --      0.0383                 0.2682                 0.2165
 IR Inten    --      1.6471                 8.9474                12.2225

                     25                     26                     27
                      A                      A                      A
 Frequencies --    324.0025               345.4169               351.4672
 Red. masses --     14.0549                 5.6168                 5.4985
 Frc consts  --      0.8693                 0.3948                 0.4002
 IR Inten    --      6.2061                20.3522                 8.3461

                     28                     29                     30
                      A                      A                      A
 Frequencies --    421.9252               455.6889               456.4663
 Red. masses --      6.8979                 6.6330                 3.9297
 Frc consts  --      0.7235                 0.8115                 0.4824
 IR Inten    --      1.1838                23.9274                 5.6615

                     31                     32                     33
                      A                      A                      A
 Frequencies --    473.0564               512.5594               523.2899
 Red. masses --      7.7404                 5.5002                 5.6497
 Frc consts  --      1.0206                 0.8514                 0.9115
 IR Inten    --      9.3947                49.9725                25.8359

                     34                     35                     36
                      A                      A                      A
 Frequencies --    562.7845               578.9185               597.4771
 Red. masses --     12.7171                 1.8899                11.0394
 Frc consts  --      2.3731                 0.3732                 2.3219
 IR Inten    --      1.9778                 0.9266                 4.0822

                     37                     38                     39
                      A                      A                      A
 Frequencies --    627.1226               652.4973               655.9418
 Red. masses --      3.3283                 2.2996                 5.1096
 Frc consts  --      0.7712                 0.5768                 1.2953
 IR Inten    --      9.4029               117.2111                25.4951

                     40                     41                     42
                      A                      A                      A
 Frequencies --    666.8230               708.1341               735.8392
 Red. masses --      1.7422                 7.1939                 4.4919
 Frc consts  --      0.4564                 2.1254                 1.4330
 IR Inten    --    101.8780                 9.7470                 1.2630

                     43                     44                     45
                      A                      A                      A
 Frequencies --    759.3672               774.0621               776.3536
 Red. masses --      1.1335                 3.2116                 6.0671
 Frc consts  --      0.3851                 1.1338                 2.1545
 IR Inten    --     19.4811                51.1531                36.9396

                     46                     47                     48
                      A                      A                      A
 Frequencies --    800.8634               819.1208               823.0303
 Red. masses --      2.9114                 1.6600                 1.6223
 Frc consts  --      1.1002                 0.6562                 0.6475
 IR Inten    --     34.8274                 9.6000               223.8453

                     49                     50                     51
                      A                      A                      A
 Frequencies --    854.5601               887.6759               895.7462
 Red. masses --      1.4819                 3.9501                 1.5194
 Frc consts  --      0.6376                 1.8339                 0.7183
 IR Inten    --     37.0817                53.4577                68.9891

                     52                     53                     54
                      A                      A                      A
 Frequencies --    907.1848               915.0156               940.9549
 Red. masses --      1.1564                 2.7485                 2.3739
 Frc consts  --      0.5607                 1.3558                 1.2384
 IR Inten    --      2.4385                35.1892                19.1023

                     55                     56                     57
                      A                      A                      A
 Frequencies --    994.6467              1024.8438              1037.0377
 Red. masses --      1.3301                 1.6545                 5.6994
 Frc consts  --      0.7753                 1.0239                 3.6114
 IR Inten    --      5.3793                14.5780                37.4563

                     58                     59                     60
                      A                      A                      A
 Frequencies --   1052.2832              1082.6334              1109.1537
 Red. masses --      4.1633                 2.6055                 1.8263
 Frc consts  --      2.7162                 1.7993                 1.3238
 IR Inten    --     28.9669                19.2594                 3.4001

                     61                     62                     63
                      A                      A                      A
 Frequencies --   1109.8632              1129.1671              1133.7474
 Red. masses --      2.2856                 2.8559                11.8242
 Frc consts  --      1.6588                 2.1454                 8.9548
 IR Inten    --     18.8267               487.3691               472.0823

                     64                     65                     66
                      A                      A                      A
 Frequencies --   1153.5890              1162.3359              1177.7496
 Red. masses --      2.8758                 3.1694                 3.9547
 Frc consts  --      2.2548                 2.5229                 3.2320
 IR Inten    --     38.6668               124.2082                14.2660

                     67                     68                     69
                      A                      A                      A
 Frequencies --   1181.3991              1193.2906              1276.5468
 Red. masses --      1.6238                 1.6725                 1.9881
 Frc consts  --      1.3353                 1.4032                 1.9088
 IR Inten    --      0.0743               123.4135               490.1717

                     70                     71                     72
                      A                      A                      A
 Frequencies --   1285.9247              1293.2528              1310.6929
 Red. masses --      1.1868                 1.1689                 1.6417
 Frc consts  --      1.1562                 1.1519                 1.6617
 IR Inten    --      0.7995                 0.5037               540.8816

                     73                     74                     75
                      A                      A                      A
 Frequencies --   1328.1696              1329.5898              1333.8903
 Red. masses --      2.8050                 1.9105                 1.0695
 Frc consts  --      2.9153                 1.9899                 1.1211
 IR Inten    --    122.5294               108.8330                 0.3696

                     76                     77                     78
                      A                      A                      A
 Frequencies --   1345.9169              1358.0101              1365.7517
 Red. masses --      2.3628                 2.3948                 3.3788
 Frc consts  --      2.5218                 2.6022                 3.7132
 IR Inten    --    811.2580                54.4177               333.3788

                     79                     80                     81
                      A                      A                      A
 Frequencies --   1415.8604              1416.2344              1427.3856
 Red. masses --      1.3153                 1.2721                 1.6810
 Frc consts  --      1.5536                 1.5032                 2.0179
 IR Inten    --     30.4727                 4.3046                26.7276

                     82                     83                     84
                      A                      A                      A
 Frequencies --   1441.8419              1447.4677              1462.3331
 Red. masses --      3.6012                 1.6117                 2.0845
 Frc consts  --      4.4110                 1.9895                 2.6263
 IR Inten    --    110.0545               270.9407               249.6898

                     85                     86                     87
                      A                      A                      A
 Frequencies --   1484.4728              1498.2001              1500.1686
 Red. masses --      1.0599                 1.0379                 1.0384
 Frc consts  --      1.3762                 1.3726                 1.3768
 IR Inten    --      4.6954                13.6008                13.4039

                     88                     89                     90
                      A                      A                      A
 Frequencies --   1504.4773              1508.4606              1528.6851
 Red. masses --      1.0974                 1.0796                 1.1115
 Frc consts  --      1.4635                 1.4473                 1.5304
 IR Inten    --     67.0914                 2.2271                64.7842

                     91                     92                     93
                      A                      A                      A
 Frequencies --   1540.1365              1555.7745              1590.1121
 Red. masses --      6.5644                 3.3589                 3.6128
 Frc consts  --      9.1741                 4.7901                 5.3821
 IR Inten    --   1029.1660               151.6080               453.1022

                     94                     95                     96
                      A                      A                      A
 Frequencies --   1619.2460              1650.0003              1682.7950
 Red. masses --      1.8622                 6.2223                 5.2891
 Frc consts  --      2.8768                 9.9809                 8.8246
 IR Inten    --   1442.9530               522.4921               156.2684

                     97                     98                     99
                      A                      A                      A
 Frequencies --   1726.8900              3063.4746              3066.6949
 Red. masses --      1.7713                 1.0581                 1.0390
 Frc consts  --      3.1122                 5.8508                 5.7571
 IR Inten    --    495.9788                13.7783                27.9667

                    100                    101                    102
                      A                      A                      A
 Frequencies --   3071.2911              3075.5249              3079.5378
 Red. masses --      1.0584                 1.0368                 1.0621
 Frc consts  --      5.8822                 5.7782                 5.9348
 IR Inten    --    117.5429                45.9334                17.6270

                    103                    104                    105
                      A                      A                      A
 Frequencies --   3092.9022              3112.3269              3112.6337
 Red. masses --      1.1043                 1.1014                 1.1063
 Frc consts  --      6.2239                 6.2857                 6.3151
 IR Inten    --      6.7169                 6.3268                41.7139

                    106                    107                    108
                      A                      A                      A
 Frequencies --   3135.5236              3143.3671              3143.9878
 Red. masses --      1.1042                 1.1024                 1.1026
 Frc consts  --      6.3960                 6.4175                 6.4216
 IR Inten    --     98.8038                48.3892                47.9713

                    109                    110                    111
                      A                      A                      A
 Frequencies --   3148.9708              3234.8118              3242.2674
 Red. masses --      1.1037                 1.0929                 1.0885
 Frc consts  --      6.4482                 6.7377                 6.7420
 IR Inten    --     55.9879                 6.2842              1057.0928

                    112                    113                    114
                      A                      A                      A
 Frequencies --   3244.4380              3293.9763              3361.0870
 Red. masses --      1.0913                 1.0932                 1.0856
 Frc consts  --      6.7683                 6.9888                 7.2259
 IR Inten    --    105.9804                 4.8867              1253.9894

 - Thermochemistry -
 -------------------
 Temperature   298.150 Kelvin.  Pressure   1.00000 Atm.
 Atom     1 has atomic number  6 and mass  12.00000

 Molecular mass:   353.08798 amu.
 Principal axes and moments of inertia in atomic units:
                           1         2         3
     Eigenvalues --  5112.76937********************
           X            1.00000  -0.00067  -0.00036
           Y            0.00067   0.99999  -0.00454
           Z            0.00037   0.00454   0.99999
 This molecule is an asymmetric top.
 Rotational symmetry number  1.
 Warning -- assumption of classical behavior for rotation
           may cause significant error
 Rotational temperatures (Kelvin)      0.01694     0.00464     0.00373
 Rotational constants (GHZ):           0.35299     0.09670     0.07765
 Zero-point vibrational energy     802863.6 (Joules/Mol)
                                  191.88902 (Kcal/Mol)
 Warning -- explicit consideration of  36 degrees of freedom as
           vibrations may cause significant error
 Vibrational temperatures:     17.96    27.90    40.80    43.83    65.35
          (Kelvin)             70.94    78.16    82.15    93.43    99.79
                              122.29   134.46   159.37   194.13   227.83
                              234.45   252.06   262.85   292.73   342.37
                              345.54   347.86   376.60   449.71   466.17
                              496.98   505.68   607.06   655.63   656.75
                              680.62   737.46   752.90   809.72   832.93
                              859.64   902.29   938.80   943.75   959.41
                             1018.85  1058.71  1092.56  1113.70  1117.00
                             1152.26  1178.53  1184.16  1229.52  1277.17
                             1288.78  1305.23  1316.50  1353.82  1431.07
                             1474.52  1492.06  1514.00  1557.67  1595.82
                             1596.84  1624.62  1631.21  1659.76  1672.34
                             1694.52  1699.77  1716.88  1836.66  1850.16
                             1860.70  1885.79  1910.94  1912.98  1919.17
                             1936.47  1953.87  1965.01  2037.10  2037.64
                             2053.69  2074.49  2082.58  2103.97  2135.82
                             2155.57  2158.41  2164.60  2170.34  2199.43
                             2215.91  2238.41  2287.81  2329.73  2373.98
                             2421.16  2484.61  4407.65  4412.28  4418.90
                             4424.99  4430.76  4449.99  4477.94  4478.38
                             4511.31  4522.60  4523.49  4530.66  4654.17
                             4664.89  4668.02  4739.29  4835.85

 Zero-point correction=                           0.305795 (Hartree/Particle)
 Thermal correction to Energy=                    0.330593
 Thermal correction to Enthalpy=                  0.331537
 Thermal correction to Gibbs Free Energy=         0.245144
 Sum of electronic and zero-point Energies=          -1638.441901
 Sum of electronic and thermal Energies=             -1638.417103
 Sum of electronic and thermal Enthalpies=           -1638.416159
 Sum of electronic and thermal Free Energies=        -1638.502552

                     E (Thermal)             CV                S
                      KCal/Mol        Cal/Mol-Kelvin    Cal/Mol-Kelvin
 Total                  207.450             86.330            181.830
 Electronic               0.000              0.000              0.000
 Translational            0.889              2.981             43.478
 Rotational               0.889              2.981             36.049
 Vibrational            205.673             80.368            102.303
 Vibration     1          0.593              1.987              7.571
 Vibration     2          0.593              1.986              6.696
 Vibration     3          0.593              1.984              5.941
 Vibration     4          0.594              1.984              5.799
 Vibration     5          0.595              1.979              5.007
 Vibration     6          0.595              1.978              4.845
 Vibration     7          0.596              1.976              4.653
 Vibration     8          0.596              1.975              4.555
 Vibration     9          0.597              1.971              4.301
 Vibration    10          0.598              1.969              4.172
 Vibration    11          0.601              1.960              3.772
 Vibration    12          0.602              1.954              3.586
 Vibration    13          0.607              1.941              3.255
 Vibration    14          0.613              1.918              2.875
 Vibration    15          0.621              1.893              2.569
 Vibration    16          0.623              1.888              2.515
 Vibration    17          0.627              1.873              2.379
 Vibration    18          0.630              1.863              2.301
 Vibration    19          0.639              1.835              2.102
 Vibration    20          0.656              1.783              1.818
 Vibration    21          0.657              1.779              1.802
 Vibration    22          0.658              1.776              1.790
 Vibration    23          0.669              1.743              1.650
 Vibration    24          0.701              1.650              1.349
 Vibration    25          0.709              1.627              1.290
 Vibration    26          0.724              1.585              1.187
 Vibration    27          0.728              1.572              1.160
 Vibration    28          0.784              1.423              0.885
 Vibration    29          0.814              1.348              0.779
 Vibration    30          0.815              1.347              0.776
 Vibration    31          0.830              1.310              0.729
 Vibration    32          0.868              1.222              0.627
 Vibration    33          0.878              1.198              0.602
 Vibration    34          0.919              1.112              0.518
 Vibration    35          0.936              1.077              0.487
 Vibration    36          0.955              1.037              0.454

 Optimization completed.
    -- Stationary point found.
 Normal termination of Gaussian 09 at Fri Nov 15 00:02:12 2019.
