 Gaussian 16, Revision C.01,
 Gaussian 16:  ES64L-G16RevC.01  3-Jul-2019

 ----------------------------------------------------------------------
 # DSDPBEP86/AUG-cc-PVTZ SCF=Tight INT(grid=ultrafine) MaxDisk=1400000M
 B
 ----------------------------------------------------------------------

 -------------------------------------
 CP19_c2_carboxy.DSDPBEP86_AUG-cc-PVTZ
 -------------------------------------
 Symbolic Z-matrix:
 Charge = -1 Multiplicity = 1

                         Standard orientation:
 ---------------------------------------------------------------------
 Center     Atomic      Atomic             Coordinates (Angstroms)
 Number     Number       Type             X           Y           Z
 ---------------------------------------------------------------------
      1          6           0       -0.625519   -0.664305   -0.018506
      2          7           0        0.746043   -0.627171   -0.037161
      3          6           0        1.618129   -1.711416    0.005609
      4          8           0        1.257003   -2.882275    0.056712
      5          7           0        2.915477   -1.331177   -0.021791
      6          6           0        3.965310   -2.319722    0.074772
      7          6           0        5.317733   -1.660023   -0.162626
      8          6           0        6.461821   -2.660309   -0.033401
      9          6           0       -1.284946    0.584723   -0.050534
     10          6           0       -2.660308    0.643942   -0.035448
     11          6           0       -3.447256   -0.512981    0.010952
     12          6           0       -2.785602   -1.738881    0.042428
     13          6           0       -1.404051   -1.834351    0.028317
     14          1           0        1.164968    0.324367   -0.073877
     15          1           0        3.181034   -0.334958    0.013398
     16          1           0        3.788908   -3.112267   -0.660315
     17          1           0        3.949262   -2.804466    1.060619
     18          1           0        5.445369   -0.834954    0.543964
     19          1           0        5.318873   -1.202938   -1.156612
     20          1           0        6.488552   -3.101440    0.967196
     21          1           0        7.429568   -2.186274   -0.212436
     22          1           0        6.354397   -3.479479   -0.750597
     23          1           0       -0.691307    1.492769   -0.085331
     24         17           0       -3.410068    2.224770   -0.074942
     25          6           0       -4.939375   -0.460795    0.027846
     26          1           0       -3.372786   -2.648461    0.078805
     27          1           0       -0.915489   -2.795609    0.053388
     28          9           0       -5.482841   -1.693396    0.068984
     29          9           0       -5.435303    0.199213    1.092719
     30          9           0       -5.461615    0.139157   -1.059593
     31          8           0        1.650229    1.972814   -0.110470
     32          8           0        3.789680    1.351300    0.090011
     33          6           0        2.881979    2.206447   -0.005409
     34          6           0        3.282062    3.689135    0.000493
     35          6           0        4.776472    3.933927    0.155374
     36          1           0        2.715063    4.171719    0.802484
     37          1           0        2.903874    4.125395   -0.929426
     38          1           0        5.143498    3.505639    1.089664
     39          1           0        5.008445    5.003437    0.148871
     40          1           0        5.332113    3.453046   -0.651303
 ---------------------------------------------------------------------

 SCF Done:  E(RDSDPBEP86) =  -1634.82572093     A.U. after   14 cycles
 E2(DSDPBEP86) =    -0.2209757339D+01 E(DSDPBEP86) =    -0.16370354782665D+04

 The electronic state is 1-A.
 Alpha  occ. eigenvalues -- -103.47914 -25.62074 -25.61388 -25.61384 -19.84554
 Alpha  occ. eigenvalues --  -19.82139 -19.81858 -14.98346 -14.96320 -10.99373
 Alpha  occ. eigenvalues --  -10.83526 -10.80382 -10.78898 -10.78287 -10.74816
 Alpha  occ. eigenvalues --  -10.74569 -10.73805 -10.72577 -10.71959 -10.71738
 Alpha  occ. eigenvalues --  -10.71199 -10.69666 -10.69594 -10.05424  -7.63100
 Alpha  occ. eigenvalues --   -7.62638  -7.62620  -1.48110  -1.38831  -1.38360
 Alpha  occ. eigenvalues --   -1.14859  -1.12650  -1.03027  -1.02428  -0.99560
 Alpha  occ. eigenvalues --   -0.97897  -0.91691  -0.86378  -0.84650  -0.82260
 Alpha  occ. eigenvalues --   -0.81222  -0.77020  -0.73825  -0.68287  -0.67603
 Alpha  occ. eigenvalues --   -0.67112  -0.64247  -0.63966  -0.63478  -0.61584
 Alpha  occ. eigenvalues --   -0.59101  -0.55729  -0.54076  -0.52890  -0.52590
 Alpha  occ. eigenvalues --   -0.50872  -0.48934  -0.48705  -0.48283  -0.48281
 Alpha  occ. eigenvalues --   -0.47379  -0.46534  -0.46519  -0.44938  -0.44736
 Alpha  occ. eigenvalues --   -0.44108  -0.43808  -0.43655  -0.42651  -0.41505
 Alpha  occ. eigenvalues --   -0.40815  -0.39939  -0.38524  -0.38501  -0.37031
 Alpha  occ. eigenvalues --   -0.36989  -0.35836  -0.35449  -0.34051  -0.33969
 Alpha  occ. eigenvalues --   -0.33209  -0.32442  -0.31650  -0.31302  -0.29090
 Alpha  occ. eigenvalues --   -0.26150  -0.22783  -0.22447  -0.22252  -0.22004
 Alpha  occ. eigenvalues --   -0.21732  -0.17257
 Alpha virt. eigenvalues --    0.08113   0.08945   0.09588   0.10050   0.10173
 Alpha virt. eigenvalues --    0.10940   0.11140   0.11257   0.11786   0.12578
 Alpha virt. eigenvalues --    0.12646   0.12944   0.13306   0.13444   0.13939

 Mulliken charges:
               1
     1  C    1.106162
     2  N   -0.427250
     3  C   -0.173462
     4  O   -0.983334
     5  N   -0.300392
     6  C   -0.476950
     7  C   -0.394749
     8  C   -1.035374
     9  C   -1.191403
    10  C    0.842029
    11  C    0.038307
    12  C   -0.661196
    13  C   -0.747392
    14  H    0.826485
    15  H    0.900907
    16  H    0.336959
    17  H    0.244090
    18  H    0.274567
    19  H    0.226364
    20  H    0.269969
    21  H    0.270574
    22  H    0.269823
    23  H    0.575750
    24  Cl  -0.516159
    25  C    1.227800
    26  H    0.361440
    27  H    0.469126
    28  F   -0.379991
    29  F   -0.417302
    30  F   -0.417739
    31  O   -0.914380
    32  O   -0.815667
    33  C    0.654058
    34  C   -0.280077
    35  C   -0.928753
    36  H    0.197836
    37  H    0.191056
    38  H    0.247384
    39  H    0.271339
    40  H    0.259547
 Sum of Mulliken charges =  -1.00000

 Dipole moment (field-independent basis, Debye):
    X=             -1.5639    Y=             -0.9562    Z=             -0.0190  Tot=              1.8332
 Quadrupole moment (field-independent basis, Debye-Ang):
   XX=           -211.4038   YY=           -170.4851   ZZ=           -147.1746
   XY=             -2.7837   XZ=             -0.6553   YZ=              0.4165

 Normal termination of Gaussian 16 at Sat Sep 19 17:50:29 2020.
