 Gaussian 09, Revision E.01,

 ----------------------------------------------------------------------
 # M062X/6-311+G* SCF=Tight INT(grid=ultrafine) OPT IOP(2/17=4) Empiric
 alDispersion=GD3 SCRF=(SMD,Solvent=n-Pentadecane) maxdisk=2684354560
 ----------------------------------------------------------------------

 --------------------------------------------------
 CP19_c2_carboxy.M062X_6-311pGd_opt_Pentadecane_GD3
 --------------------------------------------------
 Symbolic Z-matrix:
 Charge = -1 Multiplicity = 1

 SCF Done:  E(RM062X) =  -1638.71701559     A.U. after   17 cycles
 Optimization completed.
    -- Stationary point found.
 Normal termination of Gaussian 09 at Thu Nov 14 21:55:56 2019.
 Gaussian 09:  ES64L-G09RevE.01 30-Nov-2015

 ----------------------------------------------------------------------
 # M062X/6-311+G* SCF=Tight INT(grid=ultrafine) SCRF=(SMD,Solvent=n-Pen
 tadecane) EmpiricalDispersion=GD3 Freq=Noraman maxdisk=2684354560 geom
 =check guess=read IOP(2/17=4)
 ----------------------------------------------------------------------

 --------------------------------------------------
 CP19_c2_carboxy.M062X_6-311pGd_opt_Pentadecane_GD3
 --------------------------------------------------
 Structure from the checkpoint file:  "CP19_c2_carboxy.M062X_6-311pGd_opt_Pentadecane_GD3.chk"
 Charge = -1 Multiplicity = 1

                         Standard orientation:
 ---------------------------------------------------------------------
 Center     Atomic      Atomic             Coordinates (Angstroms)
 Number     Number       Type             X           Y           Z
 ---------------------------------------------------------------------
      1          6           0       -0.611765   -0.670836   -0.008871
      2          7           0        0.762191   -0.628790   -0.033553
      3          6           0        1.638405   -1.707989    0.006079
      4          8           0        1.277808   -2.879955    0.061167
      5          7           0        2.935351   -1.330225   -0.029887
      6          6           0        3.987125   -2.323215    0.045938
      7          6           0        5.343984   -1.663956   -0.161537
      8          6           0        6.479644   -2.676211   -0.065766
      9          6           0       -1.275303    0.573981   -0.071694
     10          6           0       -2.650845    0.629277   -0.053467
     11          6           0       -3.432675   -0.528672    0.027777
     12          6           0       -2.768450   -1.751303    0.090611
     13          6           0       -1.386191   -1.840687    0.073411
     14          1           0        1.172474    0.324377   -0.094105
     15          1           0        3.196772   -0.334037    0.006245
     16          1           0        3.817541   -3.092785   -0.714297
     17          1           0        3.961934   -2.833389    1.017451
     18          1           0        5.476925   -0.871062    0.580478
     19          1           0        5.354951   -1.172123   -1.139001
     20          1           0        6.501075   -3.155472    0.917254
     21          1           0        7.450412   -2.200537   -0.222834
     22          1           0        6.371863   -3.465557   -0.815467
     23          1           0       -0.687408    1.483821   -0.133918
     24         17           0       -3.405061    2.206183   -0.136652
     25          6           0       -4.925137   -0.479128    0.044377
     26          1           0       -3.350084   -2.663016    0.154753
     27          1           0       -0.898173   -2.800882    0.122400
     28          9           0       -5.466862   -1.707492    0.133370
     29          9           0       -5.420527    0.222693    1.082575
     30          9           0       -5.447279    0.079338   -1.065452
     31          8           0        1.608851    1.992589   -0.170043
     32          8           0        3.742019    1.388035    0.099693
     33          6           0        2.834647    2.240386   -0.020264
     34          6           0        3.218685    3.724449    0.009774
     35          6           0        4.696058    3.991640    0.253920
     36          1           0        2.599396    4.201835    0.775296
     37          1           0        2.894494    4.157359   -0.942148
     38          1           0        5.016716    3.573843    1.210167
     39          1           0        4.907706    5.065069    0.262204
     40          1           0        5.310135    3.527945   -0.520011
 ---------------------------------------------------------------------

 SCF Done:  E(RM062X) =  -1638.71701559     A.U. after    2 cycles

 The electronic state is 1-A.
 Alpha  occ. eigenvalues -- -102.63582 -25.23845 -25.23214 -25.23207 -19.52417
 Alpha  occ. eigenvalues --  -19.50056 -19.49810 -14.70834 -14.68900 -10.76183
 Alpha  occ. eigenvalues --  -10.60767 -10.57410 -10.56184 -10.55521 -10.52448
 Alpha  occ. eigenvalues --  -10.51673 -10.51083 -10.50235 -10.49381 -10.48205
 Alpha  occ. eigenvalues --  -10.48155 -10.46771 -10.46466  -9.77871  -7.50382
 Alpha  occ. eigenvalues --   -7.49712  -7.49697  -1.42764  -1.33460  -1.32972
 Alpha  occ. eigenvalues --   -1.11243  -1.09117  -0.99858  -0.99170  -0.96679
 Alpha  occ. eigenvalues --   -0.95202  -0.89413  -0.84350  -0.82517  -0.80070
 Alpha  occ. eigenvalues --   -0.79505  -0.76192  -0.72745  -0.68066  -0.67461
 Alpha  occ. eigenvalues --   -0.66423  -0.65089  -0.64528  -0.63263  -0.61982
 Alpha  occ. eigenvalues --   -0.59729  -0.56937  -0.55284  -0.53498  -0.53275
 Alpha  occ. eigenvalues --   -0.51817  -0.50201  -0.49892  -0.49477  -0.49108
 Alpha  occ. eigenvalues --   -0.48744  -0.47777  -0.47139  -0.46779  -0.46387
 Alpha  occ. eigenvalues --   -0.46273  -0.45685  -0.45102  -0.44181  -0.43267
 Alpha  occ. eigenvalues --   -0.43158  -0.41656  -0.40720  -0.40192  -0.39671
 Alpha  occ. eigenvalues --   -0.38762  -0.37650  -0.37371  -0.36779  -0.35993
 Alpha  occ. eigenvalues --   -0.35173  -0.34570  -0.33901  -0.33865  -0.32560
 Alpha  occ. eigenvalues --   -0.28651  -0.26333  -0.25976  -0.25526  -0.24998
 Alpha  occ. eigenvalues --   -0.24835  -0.21665
 Alpha virt. eigenvalues --    0.05035   0.05563   0.05624   0.05909   0.06428
 Alpha virt. eigenvalues --    0.06856   0.07533   0.07922   0.08088   0.08666
 Alpha virt. eigenvalues --    0.08944   0.09199   0.09683   0.09935   0.10506

 Mulliken charges:
               1
     1  C   -0.811492
     2  N   -0.448688
     3  C    0.136912
     4  O   -0.407261
     5  N   -0.407509
     6  C   -0.502988
     7  C   -0.092233
     8  C   -1.129330
     9  C   -0.680454
    10  C    2.099554
    11  C   -1.712006
    12  C   -0.788714
    13  C   -0.217619
    14  H    0.465548
    15  H    0.466726
    16  H    0.239888
    17  H    0.252988
    18  H    0.271719
    19  H    0.271743
    20  H    0.255283
    21  H    0.264761
    22  H    0.253815
    23  H    0.366929
    24  Cl   0.370267
    25  C    1.010090
    26  H    0.276553
    27  H    0.304457
    28  F   -0.155612
    29  F   -0.053203
    30  F   -0.054003
    31  O   -0.495637
    32  O   -0.442398
    33  C    0.051794
    34  C   -0.209604
    35  C   -1.022955
    36  H    0.253305
    37  H    0.255616
    38  H    0.259034
    39  H    0.245124
    40  H    0.259597
 Sum of Mulliken charges =  -1.00000

 Dipole moment (field-independent basis, Debye):
    X=             -1.0263    Y=             -1.2623    Z=              0.0812  Tot=              1.6288
 Quadrupole moment (field-independent basis, Debye-Ang):
   XX=           -204.5843   YY=           -167.4268   ZZ=           -148.3369
   XY=             -3.5107   XZ=             -0.9155   YZ=              0.4199

  Exact polarizability: 325.772 -16.167 253.272   1.351  -4.402 147.629
 Approx polarizability: 296.154 -12.483 266.773   1.224  -5.270 178.272

                      1                      2                      3
                      A                      A                      A
 Frequencies --     24.3634                28.6691                42.3212
 Red. masses --      7.2083                 5.8437                 4.4360
 Frc consts  --      0.0025                 0.0028                 0.0047
 IR Inten    --      0.0190                 0.6412                 0.1590

                      4                      5                      6
                      A                      A                      A
 Frequencies --     49.3459                53.6837                57.7261
 Red. masses --      4.4322                 7.2168                 5.8443
 Frc consts  --      0.0064                 0.0123                 0.0115
 IR Inten    --      1.3167                 0.8349                 1.4275

                      7                      8                      9
                      A                      A                      A
 Frequencies --     63.8597                65.1524                67.9683
 Red. masses --      3.9148                 4.1527                 2.8506
 Frc consts  --      0.0094                 0.0104                 0.0078
 IR Inten    --      1.4972                 3.0917                 1.1127

                     10                     11                     12
                      A                      A                      A
 Frequencies --     79.4309                82.0798               105.8052
 Red. masses --      2.5092                 4.7564                 5.4623
 Frc consts  --      0.0093                 0.0189                 0.0360
 IR Inten    --      1.2760                 7.1623                 2.9780

                     13                     14                     15
                      A                      A                      A
 Frequencies --    121.0067               143.4208               167.2325
 Red. masses --      4.4043                 9.4514                 9.1609
 Frc consts  --      0.0380                 0.1145                 0.1509
 IR Inten    --      2.6244                13.0707                15.7484

                     16                     17                     18
                      A                      A                      A
 Frequencies --    173.1912               182.7424               192.5678
 Red. masses --      4.6650                 5.5837                 4.3578
 Frc consts  --      0.0824                 0.1099                 0.0952
 IR Inten    --      5.6969                 5.4924                 6.8533

                     19                     20                     21
                      A                      A                      A
 Frequencies --    203.2296               217.1587               241.5233
 Red. masses --      6.4689                 1.1435                 2.2134
 Frc consts  --      0.1574                 0.0318                 0.0761
 IR Inten    --      2.2631                 1.0062                 0.2706

                     22                     23                     24
                      A                      A                      A
 Frequencies --    244.8722               265.3973               298.2281
 Red. masses --      1.8066                 6.4032                 3.9941
 Frc consts  --      0.0638                 0.2657                 0.2093
 IR Inten    --      0.2566                 7.7743                13.0989

                     25                     26                     27
                      A                      A                      A
 Frequencies --    323.9183               349.2110               352.9154
 Red. masses --     14.9483                 7.0428                 4.6648
 Frc consts  --      0.9241                 0.5060                 0.3423
 IR Inten    --      6.0892                 0.9520                20.5292

                     28                     29                     30
                      A                      A                      A
 Frequencies --    423.9854               456.8401               457.7197
 Red. masses --      7.5507                 6.8480                 3.8810
 Frc consts  --      0.7997                 0.8421                 0.4791
 IR Inten    --      0.8696                17.4267                 2.8429

                     31                     32                     33
                      A                      A                      A
 Frequencies --    472.9227               515.2716               526.8552
 Red. masses --      7.9423                 5.6371                 5.5955
 Frc consts  --      1.0466                 0.8818                 0.9151
 IR Inten    --      6.1241                57.9232                15.6817

                     34                     35                     36
                      A                      A                      A
 Frequencies --    566.2876               586.1500               597.0970
 Red. masses --     13.0732                 1.9424                11.1266
 Frc consts  --      2.4701                 0.3932                 2.3372
 IR Inten    --      0.6758                 1.3668                 3.1618

                     37                     38                     39
                      A                      A                      A
 Frequencies --    638.2850               656.5056               662.7083
 Red. masses --      3.7473                 6.5391                 4.7929
 Frc consts  --      0.8995                 1.6605                 1.2402
 IR Inten    --      8.5979                17.7612                33.6693

                     40                     41                     42
                      A                      A                      A
 Frequencies --    707.7087               741.9785               760.4190
 Red. masses --      7.2703                 4.6277                 1.1274
 Frc consts  --      2.1454                 1.5011                 0.3841
 IR Inten    --      7.8544                 0.0109                 9.2887

                     43                     44                     45
                      A                      A                      A
 Frequencies --    769.1647               777.4713               803.4937
 Red. masses --      2.0840                 5.2218                 5.9117
 Frc consts  --      0.7264                 1.8597                 2.2487
 IR Inten    --     35.6687                18.9283                 8.7065

                     46                     47                     48
                      A                      A                      A
 Frequencies --    812.5150               827.4163               865.3265
 Red. masses --      2.1645                 1.4760                 1.4331
 Frc consts  --      0.8419                 0.5954                 0.6322
 IR Inten    --      1.6483                10.8109                64.6121

                     49                     50                     51
                      A                      A                      A
 Frequencies --    890.6052               905.4173               912.7603
 Red. masses --      3.9501                 1.1718                 2.8768
 Frc consts  --      1.8460                 0.5660                 1.4121
 IR Inten    --     64.3776                 3.9166                33.6855

                     52                     53                     54
                      A                      A                      A
 Frequencies --    925.0763               942.2921               968.9428
 Red. masses --      1.3311                 2.3979                 1.1382
 Frc consts  --      0.6711                 1.2545                 0.6296
 IR Inten    --      0.3942                18.0775               123.8776

                     55                     56                     57
                      A                      A                      A
 Frequencies --    997.0833              1024.4971              1036.5414
 Red. masses --      1.2974                 1.6776                 5.7757
 Frc consts  --      0.7600                 1.0375                 3.6562
 IR Inten    --      3.3073                 5.6904                21.9686

                     58                     59                     60
                      A                      A                      A
 Frequencies --   1053.2700              1082.6610              1109.7254
 Red. masses --      3.9956                 2.7452                 1.7874
 Frc consts  --      2.6117                 1.8959                 1.2969
 IR Inten    --     35.6470                21.9643                 1.0143

                     61                     62                     63
                      A                      A                      A
 Frequencies --   1111.4023              1137.2421              1156.4753
 Red. masses --      2.3784                 2.8833                 2.8166
 Frc consts  --      1.7309                 2.1971                 2.2195
 IR Inten    --      5.3762               421.4610                50.1216

                     64                     65                     66
                      A                      A                      A
 Frequencies --   1158.6795              1162.6129              1183.2678
 Red. masses --     11.9247                 2.9473                 1.8084
 Frc consts  --      9.4324                 2.3471                 1.4918
 IR Inten    --    327.9463                58.0423                 2.1034

                     67                     68                     69
                      A                      A                      A
 Frequencies --   1189.6212              1202.3728              1284.9167
 Red. masses --      3.3130                 1.7439                 1.9440
 Frc consts  --      2.7624                 1.4854                 1.8910
 IR Inten    --      7.1142                89.2021               413.2682

                     70                     71                     72
                      A                      A                      A
 Frequencies --   1286.0050              1293.8704              1316.8823
 Red. masses --      1.1900                 1.1808                 1.6195
 Frc consts  --      1.1596                 1.1647                 1.6547
 IR Inten    --      0.5968                 0.3130               423.7468

                     73                     74                     75
                      A                      A                      A
 Frequencies --   1328.8773              1332.3572              1336.7473
 Red. masses --      2.7336                 1.8365                 1.1083
 Frc consts  --      2.8442                 1.9208                 1.1669
 IR Inten    --     98.9144                65.5853                32.6942

                     76                     77                     78
                      A                      A                      A
 Frequencies --   1351.3834              1366.1803              1382.8409
 Red. masses --      2.2260                 2.4358                 3.7658
 Frc consts  --      2.3952                 2.6786                 4.2428
 IR Inten    --    740.3082                34.7628               456.7542

                     79                     80                     81
                      A                      A                      A
 Frequencies --   1420.8288              1425.0088              1432.1344
 Red. masses --      1.3107                 1.3073                 1.6208
 Frc consts  --      1.5589                 1.5641                 1.9586
 IR Inten    --     18.3980                 6.4443                12.7527

                     82                     83                     84
                      A                      A                      A
 Frequencies --   1452.4178              1463.5010              1479.5036
 Red. masses --      3.5975                 3.1147                 1.3118
 Frc consts  --      4.4713                 3.9306                 1.6918
 IR Inten    --     51.5122               392.5259                58.5087

                     85                     86                     87
                      A                      A                      A
 Frequencies --   1504.8916              1507.7627              1517.3576
 Red. masses --      1.0620                 1.0392                 1.0874
 Frc consts  --      1.4170                 1.3919                 1.4751
 IR Inten    --      8.8668                10.2288                51.6112

                     88                     89                     90
                      A                      A                      A
 Frequencies --   1517.7956              1522.1831              1539.2063
 Red. masses --      1.0391                 1.0698                 1.0867
 Frc consts  --      1.4103                 1.4604                 1.5168
 IR Inten    --     10.1950                 2.7237                12.5183

                     91                     92                     93
                      A                      A                      A
 Frequencies --   1559.8186              1603.0720              1629.9783
 Red. masses --      3.5362                 3.7163                 2.7547
 Frc consts  --      5.0692                 5.6269                 4.3121
 IR Inten    --    145.5356               128.2178                 2.8109

                     94                     95                     96
                      A                      A                      A
 Frequencies --   1663.9992              1677.5751              1709.9370
 Red. masses --      5.0151                 2.8097                 2.9961
 Frc consts  --      8.1816                 4.6588                 5.1614
 IR Inten    --   1552.9011               217.4412               441.2209

                     97                     98                     99
                      A                      A                      A
 Frequencies --   1784.5567              3036.7755              3051.7733
 Red. masses --      2.5067                 1.0663                 1.0952
 Frc consts  --      4.7035                 5.7935                 6.0098
 IR Inten    --    437.0067                64.9194              1331.3427

                    100                    101                    102
                      A                      A                      A
 Frequencies --   3059.6502              3065.6545              3074.6448
 Red. masses --      1.0372                 1.0435                 1.0604
 Frc consts  --      5.7208                 5.7782                 5.9060
 IR Inten    --     45.8502                10.9416                20.8256

                    103                    104                    105
                      A                      A                      A
 Frequencies --   3076.8338              3079.0000              3106.0252
 Red. masses --      1.0817                 1.0748                 1.1006
 Frc consts  --      6.0336                 6.0035                 6.2561
 IR Inten    --     15.5703                52.1859                10.7347

                    106                    107                    108
                      A                      A                      A
 Frequencies --   3109.0549              3131.8061              3132.9040
 Red. masses --      1.1029                 1.1039                 1.0978
 Frc consts  --      6.2814                 6.3793                 6.3485
 IR Inten    --      0.5018                72.8669                50.4484

                    109                    110                    111
                      A                      A                      A
 Frequencies --   3134.1804              3151.8719              3221.0152
 Red. masses --      1.1014                 1.1026                 1.0935
 Frc consts  --      6.3746                 6.4538                 6.6841
 IR Inten    --     41.1039                41.8574                11.3720

                    112                    113                    114
                      A                      A                      A
 Frequencies --   3234.6356              3245.5661              3294.8649
 Red. masses --      1.0908                 1.0899                 1.0923
 Frc consts  --      6.7240                 6.7644                 6.9866
 IR Inten    --      6.0587              1434.4083                 8.6007

 - Thermochemistry -
 -------------------
 Temperature   298.150 Kelvin.  Pressure   1.00000 Atm.
 Atom     1 has atomic number  6 and mass  12.00000

 Molecular mass:   353.08798 amu.
 Principal axes and moments of inertia in atomic units:
                           1         2         3
     Eigenvalues --  5086.94831********************
           X            1.00000   0.00015   0.00024
           Y           -0.00015   1.00000   0.00235
           Z           -0.00024  -0.00235   1.00000
 This molecule is an asymmetric top.
 Rotational symmetry number  1.
 Warning -- assumption of classical behavior for rotation
           may cause significant error
 Rotational temperatures (Kelvin)      0.01703     0.00475     0.00378
 Rotational constants (GHZ):           0.35478     0.09889     0.07866
 Zero-point vibrational energy     806710.9 (Joules/Mol)
                                  192.80854 (Kcal/Mol)
 Warning -- explicit consideration of  36 degrees of freedom as
           vibrations may cause significant error
 Vibrational temperatures:     35.05    41.25    60.89    71.00    77.24
          (Kelvin)             83.05    91.88    93.74    97.79   114.28
                              118.09   152.23   174.10   206.35   240.61
                              249.18   262.93   277.06   292.40   312.44
                              347.50   352.32   381.85   429.08   466.05
                              502.44   507.77   610.02   657.29   658.56
                              680.43   741.36   758.03   814.76   843.34
                              859.09   918.35   944.56   953.49  1018.23
                             1067.54  1094.07  1106.66  1118.61  1156.05
                             1169.03  1190.47  1245.01  1281.38  1302.69
                             1313.26  1330.98  1355.75  1394.09  1434.58
                             1474.02  1491.35  1515.42  1557.71  1596.65
                             1599.06  1636.24  1663.91  1667.08  1672.74
                             1702.46  1711.60  1729.94  1848.71  1850.27
                             1861.59  1894.70  1911.96  1916.96  1923.28
                             1944.34  1965.63  1989.60  2044.25  2050.27
                             2060.52  2089.70  2105.65  2128.67  2165.20
                             2169.33  2183.14  2183.77  2190.08  2214.57
                             2244.23  2306.46  2345.17  2394.12  2413.65
                             2460.21  2567.58  4369.24  4390.82  4402.15
                             4410.79  4423.72  4426.87  4429.99  4468.87
                             4473.23  4505.96  4507.54  4509.38  4534.83
                             4634.32  4653.91  4669.64  4740.57

 Zero-point correction=                           0.307260 (Hartree/Particle)
 Thermal correction to Energy=                    0.331630
 Thermal correction to Enthalpy=                  0.332574
 Thermal correction to Gibbs Free Energy=         0.249291
 Sum of electronic and zero-point Energies=          -1638.409756
 Sum of electronic and thermal Energies=             -1638.385386
 Sum of electronic and thermal Enthalpies=           -1638.384442
 Sum of electronic and thermal Free Energies=        -1638.467725

                     E (Thermal)             CV                S
                      KCal/Mol        Cal/Mol-Kelvin    Cal/Mol-Kelvin
 Total                  208.101             85.472            175.285
 Electronic               0.000              0.000              0.000
 Translational            0.889              2.981             43.478
 Rotational               0.889              2.981             36.009
 Vibrational            206.323             79.511             95.798
 Vibration     1          0.593              1.985              6.242
 Vibration     2          0.593              1.984              5.919
 Vibration     3          0.595              1.980              5.147
 Vibration     4          0.595              1.978              4.843
 Vibration     5          0.596              1.976              4.677
 Vibration     6          0.596              1.974              4.533
 Vibration     7          0.597              1.972              4.334
 Vibration     8          0.597              1.971              4.295
 Vibration     9          0.598              1.969              4.211
 Vibration    10          0.600              1.963              3.905
 Vibration    11          0.600              1.961              3.841
 Vibration    12          0.605              1.945              3.344
 Vibration    13          0.609              1.932              3.084
 Vibration    14          0.616              1.910              2.758
 Vibration    15          0.624              1.883              2.466
 Vibration    16          0.627              1.875              2.401
 Vibration    17          0.630              1.863              2.300
 Vibration    18          0.635              1.850              2.203
 Vibration    19          0.639              1.835              2.104
 Vibration    20          0.646              1.815              1.983
 Vibration    21          0.658              1.777              1.792
 Vibration    22          0.660              1.771              1.767
 Vibration    23          0.671              1.736              1.626
 Vibration    24          0.691              1.677              1.427
 Vibration    25          0.708              1.628              1.290
 Vibration    26          0.726              1.577              1.170
 Vibration    27          0.729              1.569              1.153
 Vibration    28          0.786              1.418              0.879
 Vibration    29          0.815              1.346              0.775
 Vibration    30          0.816              1.344              0.773
 Vibration    31          0.830              1.310              0.729
 Vibration    32          0.870              1.216              0.621
 Vibration    33          0.882              1.191              0.594
 Vibration    34          0.922              1.104              0.511
 Vibration    35          0.943              1.061              0.474
 Vibration    36          0.955              1.038              0.455

 Optimization completed.
    -- Stationary point found.
 Normal termination of Gaussian 09 at Thu Nov 14 23:25:01 2019.
