 Gaussian 16, Revision C.01,
 Gaussian 16:  ES64L-G16RevC.01  3-Jul-2019

 ----------------------------------------------------------------------
 # DSDPBEP86/AUG-cc-PVTZ SCF=Tight INT(grid=ultrafine) Pop=NBO MaxDisk=
 1400000MB
 ----------------------------------------------------------------------

 -------------------------------------
 CP19_c2_carboxy.DSDPBEP86_AUG-cc-PVTZ
 -------------------------------------
 Symbolic Z-matrix:
 Charge = -1 Multiplicity = 1

                         Standard orientation:
 ---------------------------------------------------------------------
 Center     Atomic      Atomic             Coordinates (Angstroms)
 Number     Number       Type             X           Y           Z
 ---------------------------------------------------------------------
      1          6           0       -0.625519   -0.664305   -0.018506
      2          7           0        0.746043   -0.627171   -0.037161
      3          6           0        1.618129   -1.711416    0.005609
      4          8           0        1.257003   -2.882275    0.056712
      5          7           0        2.915477   -1.331177   -0.021791
      6          6           0        3.965310   -2.319722    0.074772
      7          6           0        5.317733   -1.660023   -0.162626
      8          6           0        6.461821   -2.660309   -0.033401
      9          6           0       -1.284946    0.584723   -0.050534
     10          6           0       -2.660308    0.643942   -0.035448
     11          6           0       -3.447256   -0.512981    0.010952
     12          6           0       -2.785602   -1.738881    0.042428
     13          6           0       -1.404051   -1.834351    0.028317
     14          1           0        1.164968    0.324367   -0.073877
     15          1           0        3.181034   -0.334958    0.013398
     16          1           0        3.788908   -3.112267   -0.660315
     17          1           0        3.949262   -2.804466    1.060619
     18          1           0        5.445369   -0.834954    0.543964
     19          1           0        5.318873   -1.202938   -1.156612
     20          1           0        6.488552   -3.101440    0.967196
     21          1           0        7.429568   -2.186274   -0.212436
     22          1           0        6.354397   -3.479479   -0.750597
     23          1           0       -0.691307    1.492769   -0.085331
     24         17           0       -3.410068    2.224770   -0.074942
     25          6           0       -4.939375   -0.460795    0.027846
     26          1           0       -3.372786   -2.648461    0.078805
     27          1           0       -0.915489   -2.795609    0.053388
     28          9           0       -5.482841   -1.693396    0.068984
     29          9           0       -5.435303    0.199213    1.092719
     30          9           0       -5.461615    0.139157   -1.059593
     31          8           0        1.650229    1.972814   -0.110470
     32          8           0        3.789680    1.351300    0.090011
     33          6           0        2.881979    2.206447   -0.005409
     34          6           0        3.282062    3.689135    0.000493
     35          6           0        4.776472    3.933927    0.155374
     36          1           0        2.715063    4.171719    0.802484
     37          1           0        2.903874    4.125395   -0.929426
     38          1           0        5.143498    3.505639    1.089664
     39          1           0        5.008445    5.003437    0.148871
     40          1           0        5.332113    3.453046   -0.651303
 ---------------------------------------------------------------------

 SCF Done:  E(RDSDPBEP86) =  -1634.82572093     A.U. after   14 cycles
 E2(DSDPBEP86) =    -0.2209757339D+01 E(DSDPBEP86) =    -0.16370354782664D+04

 The electronic state is 1-A.
 Alpha  occ. eigenvalues -- -103.47914 -25.62074 -25.61388 -25.61384 -19.84554
 Alpha  occ. eigenvalues --  -19.82139 -19.81858 -14.98346 -14.96320 -10.99373
 Alpha  occ. eigenvalues --  -10.83526 -10.80382 -10.78898 -10.78287 -10.74816
 Alpha  occ. eigenvalues --  -10.74569 -10.73805 -10.72577 -10.71959 -10.71738
 Alpha  occ. eigenvalues --  -10.71199 -10.69666 -10.69594 -10.05424  -7.63100
 Alpha  occ. eigenvalues --   -7.62638  -7.62620  -1.48110  -1.38831  -1.38360
 Alpha  occ. eigenvalues --   -1.14859  -1.12650  -1.03027  -1.02428  -0.99560
 Alpha  occ. eigenvalues --   -0.97897  -0.91691  -0.86378  -0.84650  -0.82260
 Alpha  occ. eigenvalues --   -0.81222  -0.77020  -0.73825  -0.68287  -0.67603
 Alpha  occ. eigenvalues --   -0.67112  -0.64247  -0.63966  -0.63478  -0.61584
 Alpha  occ. eigenvalues --   -0.59101  -0.55729  -0.54076  -0.52890  -0.52590
 Alpha  occ. eigenvalues --   -0.50872  -0.48934  -0.48705  -0.48283  -0.48281
 Alpha  occ. eigenvalues --   -0.47379  -0.46534  -0.46519  -0.44938  -0.44736
 Alpha  occ. eigenvalues --   -0.44108  -0.43808  -0.43655  -0.42651  -0.41505
 Alpha  occ. eigenvalues --   -0.40815  -0.39939  -0.38524  -0.38501  -0.37031
 Alpha  occ. eigenvalues --   -0.36989  -0.35836  -0.35449  -0.34051  -0.33969
 Alpha  occ. eigenvalues --   -0.33209  -0.32442  -0.31650  -0.31302  -0.29090
 Alpha  occ. eigenvalues --   -0.26150  -0.22783  -0.22447  -0.22252  -0.22004
 Alpha  occ. eigenvalues --   -0.21732  -0.17257
 Alpha virt. eigenvalues --    0.08113   0.08945   0.09588   0.10050   0.10173
 Alpha virt. eigenvalues --    0.10940   0.11140   0.11257   0.11786   0.12578
 Alpha virt. eigenvalues --    0.12646   0.12944   0.13306   0.13444   0.13939

 Mulliken charges:
               1
     1  C    1.106162
     2  N   -0.427250
     3  C   -0.173462
     4  O   -0.983334
     5  N   -0.300392
     6  C   -0.476950
     7  C   -0.394749
     8  C   -1.035374
     9  C   -1.191403
    10  C    0.842029
    11  C    0.038307
    12  C   -0.661196
    13  C   -0.747392
    14  H    0.826485
    15  H    0.900907
    16  H    0.336959
    17  H    0.244090
    18  H    0.274567
    19  H    0.226364
    20  H    0.269969
    21  H    0.270574
    22  H    0.269823
    23  H    0.575750
    24  Cl  -0.516159
    25  C    1.227800
    26  H    0.361440
    27  H    0.469126
    28  F   -0.379991
    29  F   -0.417302
    30  F   -0.417739
    31  O   -0.914380
    32  O   -0.815667
    33  C    0.654058
    34  C   -0.280077
    35  C   -0.928753
    36  H    0.197836
    37  H    0.191056
    38  H    0.247384
    39  H    0.271339
    40  H    0.259547
 Sum of Mulliken charges =  -1.00000

 Dipole moment (field-independent basis, Debye):
    X=             -1.5639    Y=             -0.9562    Z=             -0.0190  Tot=              1.8332
 Quadrupole moment (field-independent basis, Debye-Ang):
   XX=           -211.4038   YY=           -170.4851   ZZ=           -147.1746
   XY=             -2.7837   XZ=             -0.6553   YZ=              0.4165

 Summary of Natural Population Analysis:

                                       Natural Population
                Natural  -----------------------------------------------
    Atom  No    Charge         Core      Valence    Rydberg      Total
 -----------------------------------------------------------------------
      C    1    0.26520      1.99913     3.70814    0.02753     5.73480
      N    2   -0.69354      1.99934     5.66850    0.02570     7.69354
      C    3    0.90132      1.99945     3.06725    0.03198     5.09868
      O    4   -0.76081      1.99977     6.73191    0.02914     8.76081
      N    5   -0.70639      1.99940     5.68754    0.01945     7.70639
      C    6   -0.13544      1.99944     4.11166    0.02433     6.13544
      C    7   -0.36942      1.99950     4.34932    0.02059     6.36942
      C    8   -0.54360      1.99954     4.52928    0.01478     6.54360
      C    9   -0.29122      1.99906     4.26469    0.02748     6.29122
      C   10    0.06057      1.99828     3.90196    0.03919     5.93943
      C   11   -0.31466      1.99890     4.27601    0.03975     6.31466
      C   12   -0.07227      1.99887     4.04475    0.02865     6.07227
      C   13   -0.29895      1.99922     4.27164    0.02809     6.29895
      H   14    0.46346      0.00000     0.53038    0.00616     0.53654
      H   15    0.45449      0.00000     0.53899    0.00652     0.54551
      H   16    0.17275      0.00000     0.82399    0.00326     0.82725
      H   17    0.15738      0.00000     0.83947    0.00315     0.84262
      H   18    0.19747      0.00000     0.79909    0.00344     0.80253
      H   19    0.18289      0.00000     0.81350    0.00361     0.81711
      H   20    0.17740      0.00000     0.82011    0.00248     0.82260
      H   21    0.18218      0.00000     0.81558    0.00223     0.81782
      H   22    0.17618      0.00000     0.82136    0.00246     0.82382
      H   23    0.25719      0.00000     0.73890    0.00391     0.74281
     Cl   24   -0.02211      9.99965     7.00579    0.01667    17.02211
      C   25    1.12446      1.99918     2.82511    0.05125     4.87554
      H   26    0.19970      0.00000     0.79611    0.00419     0.80030
      H   27    0.25198      0.00000     0.74421    0.00380     0.74802
      F   28   -0.37693      1.99993     7.36942    0.00758     9.37693
      F   29   -0.37370      1.99992     7.36558    0.00820     9.37370
      F   30   -0.37361      1.99992     7.36549    0.00820     9.37361
      O   31   -0.85722      1.99975     6.83455    0.02293     8.85722
      O   32   -0.83304      1.99976     6.80831    0.02498     8.83304
      C   33    0.89254      1.99963     3.06314    0.04469     5.10746
      C   34   -0.46751      1.99941     4.44597    0.02214     6.46751
      C   35   -0.54623      1.99955     4.53059    0.01609     6.54623
      H   36    0.18889      0.00000     0.80799    0.00312     0.81111
      H   37    0.18873      0.00000     0.80814    0.00313     0.81127
      H   38    0.18870      0.00000     0.80848    0.00282     0.81130
      H   39    0.16357      0.00000     0.83346    0.00297     0.83643
      H   40    0.18996      0.00000     0.80721    0.00284     0.81004
 =======================================================================
   * Total *   -0.99965     53.98660   129.37358    0.63947   183.99965

 Normal termination of Gaussian 16 at Tue Nov  3 16:14:46 2020.
