 Gaussian 16, Revision C.01,
 Gaussian 16:  ES64L-G16RevC.01  3-Jul-2019

 ---------------------------------------------------------------------
 # DSDPBEP86/AUG-cc-PVTZ SCF=Tight INT(grid=ultrafine) MaxDisk=60000MB
 ---------------------------------------------------------------------

 -------------------------
 NM2.DSDPBEP86_AUG-cc-PVTZ
 -------------------------
 Symbolic Z-matrix:
 Charge =  0 Multiplicity = 1

                         Standard orientation:
 ---------------------------------------------------------------------
 Center     Atomic      Atomic             Coordinates (Angstroms)
 Number     Number       Type             X           Y           Z
 ---------------------------------------------------------------------
      1          6           0        0.477651   -0.994912   -0.072457
      2          7           0        1.861944   -1.156612   -0.140301
      3          6           0        2.832463   -0.170000    0.038474
      4          8           0        2.577757    0.981758    0.308610
      5          7           0        4.111417   -0.646454   -0.093137
      6          6           0        5.223270    0.295409   -0.039504
      7          6           0        6.548832   -0.449490    0.014014
      8          6           0        7.729179    0.514662    0.078698
      9          6           0       -0.152946    0.254878   -0.090951
     10          6           0       -1.537724    0.338638   -0.051234
     11          6           0       -2.327954   -0.816331    0.018597
     12          6           0       -1.690842   -2.052346    0.026412
     13          6           0       -0.311161   -2.145170   -0.017436
     14          1           0        2.183573   -2.113040   -0.130922
     15          1           0        4.255488   -1.479712   -0.645255
     16          1           0        5.091692    0.909707    0.852586
     17          1           0        5.195747    0.973767   -0.900311
     18          1           0        6.647095   -1.089430   -0.871020
     19          1           0        6.550945   -1.111301    0.885147
     20          1           0        7.753674    1.168330   -0.796400
     21          1           0        8.677412   -0.023160    0.118974
     22          1           0        7.668178    1.149444    0.965718
     23          1           0        0.441473    1.153723   -0.132756
     24          1           0        0.157576   -3.124095   -0.004883
     25          6           0       -3.836851   -0.804633    0.050013
     26          6           0       -2.131850    1.732735   -0.050061
     27          1           0       -2.282362   -2.957122    0.077857
     28          9           0       -4.327271    0.130340    0.868708
     29          9           0       -4.316017   -1.984781    0.478738
     30          9           0       -4.368449   -0.599984   -1.163114
     31          9           0       -1.253054    2.639717   -0.494160
     32          9           0       -2.492933    2.114403    1.181188
     33          9           0       -3.209886    1.821376   -0.835909
 ---------------------------------------------------------------------

 SCF Done:  E(RDSDPBEP86) =  -1244.84069966     A.U. after   14 cycles
 E2(DSDPBEP86) =    -0.2049133144D+01 E(DSDPBEP86) =    -0.12468898328032D+04

 The electronic state is 1-A.
 Alpha  occ. eigenvalues --  -25.70979 -25.70773 -25.70666 -25.70638 -25.70396
 Alpha  occ. eigenvalues --  -25.70385 -19.98558 -15.14196 -15.11941 -11.08816
 Alpha  occ. eigenvalues --  -11.08731 -10.97923 -10.90684 -10.87572 -10.86640
 Alpha  occ. eigenvalues --  -10.86201 -10.85888 -10.85307 -10.84620 -10.83277
 Alpha  occ. eigenvalues --  -10.81867  -1.57722  -1.57261  -1.48254  -1.47939
 Alpha  occ. eigenvalues --   -1.47777  -1.47645  -1.29544  -1.17102  -1.13389
 Alpha  occ. eigenvalues --   -1.08108  -0.98503  -0.97508  -0.96265  -0.89074
 Alpha  occ. eigenvalues --   -0.87273  -0.85015  -0.80426  -0.79695  -0.75618
 Alpha  occ. eigenvalues --   -0.75228  -0.74164  -0.73816  -0.73591  -0.73088
 Alpha  occ. eigenvalues --   -0.73064  -0.70649  -0.69052  -0.64762  -0.62397
 Alpha  occ. eigenvalues --   -0.62330  -0.61702  -0.61603  -0.61414  -0.59971
 Alpha  occ. eigenvalues --   -0.59823  -0.58534  -0.57924  -0.57320  -0.57144
 Alpha  occ. eigenvalues --   -0.56940  -0.56392  -0.55842  -0.55527  -0.55349
 Alpha  occ. eigenvalues --   -0.54421  -0.52770  -0.52638  -0.51196  -0.49219
 Alpha  occ. eigenvalues --   -0.48948  -0.47406  -0.47175  -0.45138  -0.44498
 Alpha  occ. eigenvalues --   -0.42639  -0.39961  -0.36849  -0.34844  -0.30897
 Alpha virt. eigenvalues --   -0.00143   0.01309   0.01993   0.02212   0.02427
 Alpha virt. eigenvalues --    0.02921   0.03564   0.03750   0.04407   0.04633
 Alpha virt. eigenvalues --    0.05020   0.05275   0.05802   0.06476   0.06698

 Mulliken charges:
               1
     1  C    0.687095
     2  N   -0.351371
     3  C    0.159477
     4  O   -0.772636
     5  N   -0.161189
     6  C   -0.144386
     7  C   -0.408223
     8  C   -0.979538
     9  C   -0.737526
    10  C    0.479223
    11  C    0.334494
    12  C   -0.781002
    13  C   -0.600772
    14  H    0.023156
    15  H    0.062366
    16  H    0.311996
    17  H    0.289621
    18  H    0.236034
    19  H    0.253128
    20  H    0.274588
    21  H    0.277127
    22  H    0.277798
    23  H    0.427486
    24  H    0.444216
    25  C    1.238441
    26  C    1.247407
    27  H    0.350023
    28  F   -0.429925
    29  F   -0.386817
    30  F   -0.407541
    31  F   -0.373421
    32  F   -0.409729
    33  F   -0.429601
 Sum of Mulliken charges =  -0.00000

 Dipole moment (field-independent basis, Debye):
    X=              7.0493    Y=             -5.4908    Z=             -1.1121  Tot=              9.0044
 Quadrupole moment (field-independent basis, Debye-Ang):
   XX=           -112.0957   YY=           -115.0192   ZZ=           -122.3083
   XY=             -6.6092   XZ=             -4.0048   YZ=              0.4969

 Normal termination of Gaussian 16 at Wed Sep  9 20:06:16 2020.
