 Gaussian 09, Revision E.01,

 ----------------------------------------------------------------------
 # M062X/6-311+G* SCF=Tight INT(grid=ultrafine) OPT IOP(2/17=4) Empiric
 alDispersion=GD3 maxdisk=2684354560
 ----------------------------------------------------------------------

 --------------------------
 NM2.M062X_6-311pGd_opt_GD3
 --------------------------
 Symbolic Z-matrix:
 Charge =  0 Multiplicity = 1

 SCF Done:  E(RM062X) =  -1248.24469002     A.U. after   16 cycles
 Optimization completed.
    -- Stationary point found.
 Normal termination of Gaussian 09 at Thu Nov 14 09:39:45 2019.
 Gaussian 09:  ES64L-G09RevE.01 30-Nov-2015

 ----------------------------------------------------------------------
 # M062X/6-311+G* SCF=Tight INT(grid=ultrafine) EmpiricalDispersion=GD3
  Freq=Noraman maxdisk=2684354560 geom=check guess=read IOP(2/17=4)
 ----------------------------------------------------------------------

 --------------------------
 NM2.M062X_6-311pGd_opt_GD3
 --------------------------
 Structure from the checkpoint file:  "NM2.M062X_6-311pGd_opt_GD3.chk"
 Charge =  0 Multiplicity = 1

                         Standard orientation:
 ---------------------------------------------------------------------
 Center     Atomic      Atomic             Coordinates (Angstroms)
 Number     Number       Type             X           Y           Z
 ---------------------------------------------------------------------
      1          6           0        0.477651   -0.994912   -0.072457
      2          7           0        1.861944   -1.156612   -0.140301
      3          6           0        2.832463   -0.170000    0.038474
      4          8           0        2.577757    0.981758    0.308610
      5          7           0        4.111417   -0.646454   -0.093137
      6          6           0        5.223270    0.295409   -0.039504
      7          6           0        6.548832   -0.449490    0.014014
      8          6           0        7.729179    0.514662    0.078698
      9          6           0       -0.152946    0.254878   -0.090951
     10          6           0       -1.537724    0.338638   -0.051234
     11          6           0       -2.327954   -0.816331    0.018597
     12          6           0       -1.690842   -2.052346    0.026412
     13          6           0       -0.311161   -2.145170   -0.017436
     14          1           0        2.183573   -2.113040   -0.130922
     15          1           0        4.255488   -1.479712   -0.645255
     16          1           0        5.091692    0.909707    0.852586
     17          1           0        5.195747    0.973767   -0.900311
     18          1           0        6.647095   -1.089430   -0.871020
     19          1           0        6.550945   -1.111301    0.885147
     20          1           0        7.753674    1.168330   -0.796400
     21          1           0        8.677412   -0.023160    0.118974
     22          1           0        7.668178    1.149444    0.965718
     23          1           0        0.441473    1.153723   -0.132756
     24          1           0        0.157576   -3.124095   -0.004883
     25          6           0       -3.836851   -0.804633    0.050013
     26          6           0       -2.131850    1.732735   -0.050061
     27          1           0       -2.282362   -2.957122    0.077857
     28          9           0       -4.327271    0.130340    0.868708
     29          9           0       -4.316017   -1.984781    0.478738
     30          9           0       -4.368449   -0.599984   -1.163114
     31          9           0       -1.253054    2.639717   -0.494160
     32          9           0       -2.492933    2.114403    1.181188
     33          9           0       -3.209886    1.821376   -0.835909
 ---------------------------------------------------------------------

 SCF Done:  E(RM062X) =  -1248.24469002     A.U. after    2 cycles

 The electronic state is 1-A.
 Alpha  occ. eigenvalues --  -25.27904 -25.27690 -25.27609 -25.27557 -25.27304
 Alpha  occ. eigenvalues --  -25.27257 -19.61078 -14.81241 -14.79006 -10.80769
 Alpha  occ. eigenvalues --  -10.80654 -10.69787 -10.62980 -10.59963 -10.59244
 Alpha  occ. eigenvalues --  -10.58681 -10.58258 -10.57908 -10.57259 -10.55688
 Alpha  occ. eigenvalues --  -10.54189  -1.47427  -1.46976  -1.37966  -1.37616
 Alpha  occ. eigenvalues --   -1.37479  -1.37323  -1.20567  -1.08854  -1.05394
 Alpha  occ. eigenvalues --   -1.00364  -0.91592  -0.90561  -0.89418  -0.83202
 Alpha  occ. eigenvalues --   -0.81632  -0.79316  -0.75369  -0.74719  -0.70907
 Alpha  occ. eigenvalues --   -0.70762  -0.69878  -0.69673  -0.69342  -0.69020
 Alpha  occ. eigenvalues --   -0.68735  -0.66561  -0.64936  -0.60909  -0.58177
 Alpha  occ. eigenvalues --   -0.58055  -0.57971  -0.57435  -0.57300  -0.56344
 Alpha  occ. eigenvalues --   -0.55928  -0.55005  -0.54451  -0.53781  -0.53191
 Alpha  occ. eigenvalues --   -0.52750  -0.52627  -0.52079  -0.51209  -0.51079
 Alpha  occ. eigenvalues --   -0.50746  -0.49842  -0.49428  -0.48497  -0.46962
 Alpha  occ. eigenvalues --   -0.45721  -0.44510  -0.44188  -0.42553  -0.41922
 Alpha  occ. eigenvalues --   -0.40759  -0.37195  -0.34819  -0.34398  -0.30303
 Alpha virt. eigenvalues --   -0.02570  -0.01809  -0.01056   0.00618   0.01527
 Alpha virt. eigenvalues --    0.02082   0.02570   0.03204   0.03960   0.04408
 Alpha virt. eigenvalues --    0.04827   0.05102   0.05842   0.06190   0.06217

 Mulliken charges:
               1
     1  C   -1.010165
     2  N   -0.341405
     3  C    0.102604
     4  O   -0.322283
     5  N   -0.279233
     6  C   -0.522041
     7  C   -0.114889
     8  C   -1.018966
     9  C    0.217314
    10  C   -0.659929
    11  C   -0.615678
    12  C   -0.282681
    13  C    0.093369
    14  H    0.338427
    15  H    0.325374
    16  H    0.272016
    17  H    0.264068
    18  H    0.232583
    19  H    0.262795
    20  H    0.260931
    21  H    0.270152
    22  H    0.262686
    23  H    0.334556
    24  H    0.237562
    25  C    0.836136
    26  C    0.973097
    27  H    0.287896
    28  F   -0.064459
    29  F   -0.118735
    30  F   -0.033867
    31  F   -0.102731
    32  F   -0.023454
    33  F   -0.061048
 Sum of Mulliken charges =  -0.00000

 Dipole moment (field-independent basis, Debye):
    X=              7.3229    Y=             -5.5661    Z=             -1.1320  Tot=              9.2675
 Quadrupole moment (field-independent basis, Debye-Ang):
   XX=           -112.0452   YY=           -115.3124   ZZ=           -123.5838
   XY=             -6.3921   XZ=             -4.0765   YZ=              0.6360

  Exact polarizability: 227.571   3.164 154.695  -1.747   1.242 103.547
 Approx polarizability: 222.631  -1.076 204.089  -2.786   2.575 138.322

                      1                      2                      3
                      A                      A                      A
 Frequencies --     16.3152                19.3730                49.7606
 Red. masses --      3.1601                 4.0976                 5.4572
 Frc consts  --      0.0005                 0.0009                 0.0080
 IR Inten    --      0.5059                 2.9193                 0.2042

                      4                      5                      6
                      A                      A                      A
 Frequencies --     51.6798                64.1676                71.9800
 Red. masses --      4.5648                 5.6808                 3.5994
 Frc consts  --      0.0072                 0.0138                 0.0110
 IR Inten    --      4.3319                 2.0939                 1.1647

                      7                      8                      9
                      A                      A                      A
 Frequencies --     93.3072                97.5686               125.3200
 Red. masses --     18.4537                 4.6546                 6.0934
 Frc consts  --      0.0947                 0.0261                 0.0564
 IR Inten    --      0.0288                 0.1991                 3.2327

                     10                     11                     12
                      A                      A                      A
 Frequencies --    142.0462               169.4172               188.4199
 Red. masses --      7.4182                13.2661                 2.9552
 Frc consts  --      0.0882                 0.2243                 0.0618
 IR Inten    --      0.4870                 0.9305                 0.6105

                     13                     14                     15
                      A                      A                      A
 Frequencies --    205.1035               229.6175               237.6048
 Red. masses --      6.3624                 7.0928                 4.0358
 Frc consts  --      0.1577                 0.2203                 0.1342
 IR Inten    --      0.3850                 7.3737                 3.5992

                     16                     17                     18
                      A                      A                      A
 Frequencies --    241.6354               263.0409               315.7831
 Red. masses --      1.2538                 8.6853                 6.4480
 Frc consts  --      0.0431                 0.3541                 0.3788
 IR Inten    --      0.4434                 2.1528                 0.6329

                     19                     20                     21
                      A                      A                      A
 Frequencies --    338.0224               342.3687               369.9203
 Red. masses --      3.7196                11.5352                 1.6603
 Frc consts  --      0.2504                 0.7966                 0.1339
 IR Inten    --     33.9736                 6.0318                57.3725

                     22                     23                     24
                      A                      A                      A
 Frequencies --    387.6613               397.3843               421.0774
 Red. masses --      7.6710                 4.1630                 4.6271
 Frc consts  --      0.6792                 0.3873                 0.4834
 IR Inten    --      3.4234                 8.1602                 6.5088

                     25                     26                     27
                      A                      A                      A
 Frequencies --    465.2007               482.1337               502.4815
 Red. masses --      6.5722                 6.2050                 1.6976
 Frc consts  --      0.8380                 0.8498                 0.2525
 IR Inten    --      8.6533                 1.1932                65.6465

                     28                     29                     30
                      A                      A                      A
 Frequencies --    515.8457               541.6210               574.2850
 Red. masses --      2.4181                11.5461                13.7058
 Frc consts  --      0.3791                 1.9956                 2.6632
 IR Inten    --     75.1607                 1.2278                 1.7661

                     31                     32                     33
                      A                      A                      A
 Frequencies --    607.5179               622.2966               656.4774
 Red. masses --      5.2514                 8.3432                 5.7549
 Frc consts  --      1.1419                 1.9036                 1.4613
 IR Inten    --     14.2283                 0.8480                 1.1130

                     34                     35                     36
                      A                      A                      A
 Frequencies --    663.5541               685.5724               755.2775
 Red. masses --      7.0823                 8.8240                 1.2600
 Frc consts  --      1.8373                 2.4435                 0.4235
 IR Inten    --      7.4580                16.3148                 7.9911

                     37                     38                     39
                      A                      A                      A
 Frequencies --    766.8898               772.7358               777.6437
 Red. masses --      4.8772                 4.6677                 7.2379
 Frc consts  --      1.6900                 1.6422                 2.5788
 IR Inten    --      2.2073                12.1862                 8.0744

                     40                     41                     42
                      A                      A                      A
 Frequencies --    780.9935               810.3270               853.7755
 Red. masses --      9.9689                 6.6400                 1.4942
 Frc consts  --      3.5826                 2.5688                 0.6417
 IR Inten    --      7.2880                 7.2816                43.2544

                     43                     44                     45
                      A                      A                      A
 Frequencies --    903.3941               928.0438               942.6512
 Red. masses --      1.1864                 1.8535                 1.4212
 Frc consts  --      0.5705                 0.9406                 0.7441
 IR Inten    --      2.1814                 1.9842                18.7852

                     46                     47                     48
                      A                      A                      A
 Frequencies --    958.5045               986.1843              1043.8657
 Red. masses --      4.9088                 1.3364                 4.1861
 Frc consts  --      2.6572                 0.7658                 2.6875
 IR Inten    --     19.2092                 3.2398                 4.8104

                     49                     50                     51
                      A                      A                      A
 Frequencies --   1052.0043              1075.7781              1132.0786
 Red. masses --      6.2261                 2.6898                 3.7091
 Frc consts  --      4.0598                 1.8340                 2.8007
 IR Inten    --     52.5765                 9.3209               143.7428

                     52                     53                     54
                      A                      A                      A
 Frequencies --   1145.4815              1165.6984              1173.1173
 Red. masses --      2.5862                 2.6641                 2.6926
 Frc consts  --      1.9993                 2.1329                 2.1833
 IR Inten    --     14.7899                 1.7669                73.5262

                     55                     56                     57
                      A                      A                      A
 Frequencies --   1182.1401              1197.1005              1218.9672
 Red. masses --      1.7044                 8.6286                 2.2745
 Frc consts  --      1.4033                 7.2854                 1.9913
 IR Inten    --      0.2907                 9.0623               331.8668

                     58                     59                     60
                      A                      A                      A
 Frequencies --   1232.0063              1237.3442              1244.6597
 Red. masses --      5.7374                 2.1750                 9.3299
 Frc consts  --      5.1309                 1.9620                 8.5158
 IR Inten    --    539.9999               210.0592               210.7260

                     61                     62                     63
                      A                      A                      A
 Frequencies --   1285.8877              1292.8500              1318.3627
 Red. masses --      1.7082                 1.6874                 2.4010
 Frc consts  --      1.6641                 1.6617                 2.4587
 IR Inten    --     59.4487                59.9732               161.5979

                     64                     65                     66
                      A                      A                      A
 Frequencies --   1324.1034              1334.7360              1349.6461
 Red. masses --      2.2586                 1.2365                 1.3225
 Frc consts  --      2.3331                 1.2979                 1.4193
 IR Inten    --    125.7771                92.7855                53.4498

                     67                     68                     69
                      A                      A                      A
 Frequencies --   1353.1371              1377.0033              1425.7376
 Red. masses --      3.7656                 4.1871                 1.5289
 Frc consts  --      4.0623                 4.6777                 1.8310
 IR Inten    --    231.4102               473.0606                 0.9033

                     70                     71                     72
                      A                      A                      A
 Frequencies --   1432.8468              1475.4485              1509.5437
 Red. masses --      1.2971                 4.6168                 1.0609
 Frc consts  --      1.5690                 5.9216                 1.4244
 IR Inten    --      2.1754               220.3356                 4.7296

                     73                     74                     75
                      A                      A                      A
 Frequencies --   1522.9645              1524.1298              1535.4773
 Red. masses --      1.0443                 1.0676                 1.2524
 Frc consts  --      1.4271                 1.4611                 1.7397
 IR Inten    --     13.6423                 3.5859                43.8241

                     76                     77                     78
                      A                      A                      A
 Frequencies --   1544.3301              1565.9015              1593.3374
 Red. masses --      1.3836                 2.4262                 2.8531
 Frc consts  --      1.9442                 3.5051                 4.2676
 IR Inten    --    156.8556               264.0794               476.5712

                     79                     80                     81
                      A                      A                      A
 Frequencies --   1665.4430              1695.8720              1825.4421
 Red. masses --      5.6041                 6.0057                 8.7182
 Frc consts  --      9.1583                10.1765                17.1164
 IR Inten    --    134.1113                55.5331               286.1009

                     82                     83                     84
                      A                      A                      A
 Frequencies --   3052.6317              3057.2671              3072.5005
 Red. masses --      1.0640                 1.0722                 1.0371
 Frc consts  --      5.8419                 5.9046                 5.7683
 IR Inten    --     18.8869                28.2353                28.0140

                     85                     86                     87
                      A                      A                      A
 Frequencies --   3099.1478              3135.2335              3143.8467
 Red. masses --      1.0956                 1.0978                 1.1019
 Frc consts  --      6.2002                 6.3581                 6.4166
 IR Inten    --     13.5049                 0.7916                44.5330

                     88                     89                     90
                      A                      A                      A
 Frequencies --   3150.8696              3202.8738              3249.0759
 Red. masses --      1.1021                 1.0908                 1.0930
 Frc consts  --      6.4464                 6.5932                 6.7982
 IR Inten    --     25.5337                 8.7532                 0.3364

                     91                     92                     93
                      A                      A                      A
 Frequencies --   3298.2703              3636.2450              3650.7442
 Red. masses --      1.0911                 1.0772                 1.0767
 Frc consts  --      6.9934                 8.3915                 8.4550
 IR Inten    --     18.2568                19.9269                33.8115

 - Thermochemistry -
 -------------------
 Temperature   298.150 Kelvin.  Pressure   1.00000 Atm.
 Atom     1 has atomic number  6 and mass  12.00000

 Molecular mass:   314.08538 amu.
 Principal axes and moments of inertia in atomic units:
                           1         2         3
     Eigenvalues --  2537.11718********************
           X            1.00000   0.00282  -0.00026
           Y           -0.00282   0.99999   0.00267
           Z            0.00026  -0.00267   1.00000
 This molecule is an asymmetric top.
 Rotational symmetry number  1.
 Warning -- assumption of classical behavior for rotation
           may cause significant error
 Rotational temperatures (Kelvin)      0.03414     0.00568     0.00506
 Rotational constants (GHZ):           0.71134     0.11833     0.10553
 Zero-point vibrational energy     635176.0 (Joules/Mol)
                                  151.81070 (Kcal/Mol)
 Warning -- explicit consideration of  31 degrees of freedom as
           vibrations may cause significant error
 Vibrational temperatures:     23.47    27.87    71.59    74.36    92.32
          (Kelvin)            103.56   134.25   140.38   180.31   204.37
                              243.75   271.09   295.10   330.37   341.86
                              347.66   378.46   454.34   486.34   492.59
                              532.23   557.76   571.75   605.84   669.32
                              693.68   722.96   742.19   779.27   826.27
                              874.08   895.34   944.52   954.71   986.38
                             1086.67  1103.38  1111.79  1118.85  1123.67
                             1165.88  1228.39  1299.78  1335.25  1356.26
                             1379.07  1418.90  1501.89  1513.60  1547.80
                             1628.81  1648.09  1677.18  1687.85  1700.83
                             1722.36  1753.82  1772.58  1780.26  1790.79
                             1850.10  1860.12  1896.83  1905.09  1920.39
                             1941.84  1946.86  1981.20  2051.32  2061.54
                             2122.84  2171.89  2191.20  2192.88  2209.21
                             2221.94  2252.98  2292.45  2396.20  2439.98
                             2626.40  4392.05  4398.72  4420.64  4458.98
                             4510.90  4523.29  4533.39  4608.22  4674.69
                             4745.47  5231.74  5252.60

 Zero-point correction=                           0.241926 (Hartree/Particle)
 Thermal correction to Energy=                    0.261975
 Thermal correction to Enthalpy=                  0.262919
 Thermal correction to Gibbs Free Energy=         0.190233
 Sum of electronic and zero-point Energies=          -1248.002764
 Sum of electronic and thermal Energies=             -1247.982715
 Sum of electronic and thermal Enthalpies=           -1247.981771
 Sum of electronic and thermal Free Energies=        -1248.054457

                     E (Thermal)             CV                S
                      KCal/Mol        Cal/Mol-Kelvin    Cal/Mol-Kelvin
 Total                  164.392             72.890            152.980
 Electronic               0.000              0.000              0.000
 Translational            0.889              2.981             43.130
 Rotational               0.889              2.981             34.847
 Vibrational            162.614             66.928             75.003
 Vibration     1          0.593              1.986              7.039
 Vibration     2          0.593              1.986              6.697
 Vibration     3          0.595              1.978              4.827
 Vibration     4          0.596              1.977              4.752
 Vibration     5          0.597              1.971              4.325
 Vibration     6          0.598              1.967              4.098
 Vibration     7          0.602              1.954              3.590
 Vibration     8          0.603              1.951              3.502
 Vibration     9          0.610              1.928              3.017
 Vibration    10          0.616              1.911              2.776
 Vibration    11          0.625              1.880              2.442
 Vibration    12          0.633              1.856              2.243
 Vibration    13          0.640              1.833              2.087
 Vibration    14          0.652              1.796              1.882
 Vibration    15          0.656              1.783              1.821
 Vibration    16          0.658              1.777              1.791
 Vibration    17          0.670              1.741              1.642
 Vibration    18          0.703              1.644              1.332
 Vibration    19          0.718              1.600              1.221
 Vibration    20          0.721              1.591              1.201
 Vibration    21          0.742              1.534              1.080
 Vibration    22          0.756              1.497              1.009
 Vibration    23          0.764              1.476              0.972
 Vibration    24          0.784              1.424              0.888
 Vibration    25          0.823              1.327              0.751
 Vibration    26          0.838              1.290              0.704
 Vibration    27          0.858              1.245              0.652
 Vibration    28          0.871              1.215              0.620
 Vibration    29          0.897              1.158              0.562
 Vibration    30          0.931              1.087              0.496
 Vibration    31          0.966              1.016              0.437

 Normal termination of Gaussian 09 at Thu Nov 14 10:30:03 2019.
