 Gaussian 09, Revision E.01,

 ----------------------------------------------------------------------
 # M062X/6-311+G* SCF=Tight INT(grid=ultrafine) OPT IOP(2/17=4) Empiric
 alDispersion=GD3 maxdisk=2684354560
 ----------------------------------------------------------------------

 -----------------------------
 NM2_c2.M062X_6-311pGd_opt_GD3
 -----------------------------
 Symbolic Z-matrix:
 Charge =  0 Multiplicity = 1

 SCF Done:  E(RM062X) =  -1248.24573106     A.U. after   16 cycles
 Optimization completed.
    -- Stationary point found.
 Normal termination of Gaussian 09 at Thu Nov 14 09:35:07 2019.
 Gaussian 09:  ES64L-G09RevE.01 30-Nov-2015

 ----------------------------------------------------------------------
 # M062X/6-311+G* SCF=Tight INT(grid=ultrafine) EmpiricalDispersion=GD3
  Freq=Noraman maxdisk=2684354560 geom=check guess=read IOP(2/17=4)
 ----------------------------------------------------------------------

 -----------------------------
 NM2_c2.M062X_6-311pGd_opt_GD3
 -----------------------------
 Structure from the checkpoint file:  "NM2_c2.M062X_6-311pGd_opt_GD3.chk"
 Charge =  0 Multiplicity = 1

                         Standard orientation:
 ---------------------------------------------------------------------
 Center     Atomic      Atomic             Coordinates (Angstroms)
 Number     Number       Type             X           Y           Z
 ---------------------------------------------------------------------
      1          6           0        0.565523   -0.043546   -0.051216
      2          7           0        1.883148    0.414358   -0.080751
      3          6           0        3.042573   -0.353770    0.014120
      4          8           0        3.042266   -1.554390    0.172782
      5          7           0        4.189796    0.392248   -0.060377
      6          6           0        5.478121   -0.289424   -0.085038
      7          6           0        6.612680    0.712543    0.069526
      8          6           0        7.973260    0.022991    0.052652
      9          6           0       -0.444334    0.926459   -0.010994
     10          6           0       -1.783180    0.577148    0.004856
     11          6           0       -2.150679   -0.775092   -0.030243
     12          6           0       -1.143133   -1.731408   -0.064085
     13          6           0        0.202532   -1.390928   -0.075496
     14          1           0        1.994477    1.415409   -0.020299
     15          1           0        4.148948    1.294170   -0.512540
     16          1           0        5.593085   -0.862870   -1.012400
     17          1           0        5.486136   -1.008233    0.735775
     18          1           0        6.477326    1.262558    1.005457
     19          1           0        6.565799    1.449352   -0.741209
     20          1           0        8.055415   -0.701456    0.866249
     21          1           0        8.783540    0.744423    0.166525
     22          1           0        8.133181   -0.512270   -0.886305
     23          1           0       -0.175232    1.976104    0.015087
     24          1           0        0.959925   -2.158480   -0.096909
     25          6           0       -3.581492   -1.251107    0.006207
     26          6           0       -2.789907    1.706987    0.018670
     27          1           0       -1.412647   -2.779533   -0.088377
     28          9           0       -4.380276   -0.532879   -0.790985
     29          9           0       -4.099563   -1.203640    1.241586
     30          9           0       -3.675543   -2.527252   -0.397942
     31          9           0       -2.220039    2.860350    0.406832
     32          9           0       -3.802083    1.475596    0.856874
     33          9           0       -3.305882    1.928335   -1.196276
 ---------------------------------------------------------------------

 SCF Done:  E(RM062X) =  -1248.24573106     A.U. after    2 cycles

 The electronic state is 1-A.
 Alpha  occ. eigenvalues --  -25.28591 -25.28247 -25.27988 -25.27932 -25.27698
 Alpha  occ. eigenvalues --  -25.27357 -19.61124 -14.81320 -14.79073 -10.81414
 Alpha  occ. eigenvalues --  -10.80808 -10.69872 -10.63016 -10.60371 -10.59262
 Alpha  occ. eigenvalues --  -10.58771 -10.58382 -10.57925 -10.56825 -10.55742
 Alpha  occ. eigenvalues --  -10.54255  -1.47989  -1.47208  -1.38543  -1.38186
 Alpha  occ. eigenvalues --   -1.37805  -1.37473  -1.20603  -1.08923  -1.05461
 Alpha  occ. eigenvalues --   -1.00510  -0.91575  -0.90796  -0.89502  -0.83660
 Alpha  occ. eigenvalues --   -0.81593  -0.79464  -0.75601  -0.74714  -0.71494
 Alpha  occ. eigenvalues --   -0.70843  -0.70414  -0.70250  -0.69718  -0.69359
 Alpha  occ. eigenvalues --   -0.68852  -0.66031  -0.65274  -0.61007  -0.58573
 Alpha  occ. eigenvalues --   -0.58514  -0.58083  -0.57667  -0.57639  -0.56538
 Alpha  occ. eigenvalues --   -0.55997  -0.55339  -0.54598  -0.54194  -0.53581
 Alpha  occ. eigenvalues --   -0.53051  -0.52793  -0.52224  -0.51811  -0.51250
 Alpha  occ. eigenvalues --   -0.50806  -0.49953  -0.49692  -0.48557  -0.47039
 Alpha  occ. eigenvalues --   -0.45653  -0.44587  -0.44439  -0.42617  -0.41992
 Alpha  occ. eigenvalues --   -0.40838  -0.37204  -0.34904  -0.34420  -0.30307
 Alpha virt. eigenvalues --   -0.02387  -0.01666  -0.01377   0.00867   0.01782
 Alpha virt. eigenvalues --    0.02023   0.02650   0.02994   0.04099   0.04201
 Alpha virt. eigenvalues --    0.04757   0.04871   0.05725   0.06016   0.06139

 Mulliken charges:
               1
     1  C   -0.597878
     2  N   -0.376056
     3  C    0.123479
     4  O   -0.328334
     5  N   -0.275773
     6  C   -0.538184
     7  C   -0.112012
     8  C   -1.019848
     9  C   -0.301271
    10  C   -0.668423
    11  C   -0.742477
    12  C   -0.183604
    13  C    0.161466
    14  H    0.343204
    15  H    0.324459
    16  H    0.263507
    17  H    0.271175
    18  H    0.263786
    19  H    0.233835
    20  H    0.262353
    21  H    0.270580
    22  H    0.260758
    23  H    0.264725
    24  H    0.311304
    25  C    0.781975
    26  C    1.123638
    27  H    0.286515
    28  F   -0.065082
    29  F   -0.032581
    30  F   -0.113663
    31  F   -0.115636
    32  F   -0.051502
    33  F   -0.024434
 Sum of Mulliken charges =   0.00000

 Dipole moment (field-independent basis, Debye):
    X=              7.1588    Y=              2.5447    Z=             -0.8654  Tot=              7.6468
 Quadrupole moment (field-independent basis, Debye-Ang):
   XX=           -116.8803   YY=           -120.6522   ZZ=           -123.6621
   XY=             12.5815   XZ=             -3.0386   YZ=             -0.2767

  Exact polarizability: 230.085   4.206 153.185  -0.824  -0.279 103.174
 Approx polarizability: 221.591   4.500 205.482  -0.995  -1.134 137.404

                      1                      2                      3
                      A                      A                      A
 Frequencies --     17.8806                18.5384                49.9728
 Red. masses --      5.0444                 2.4509                 5.8654
 Frc consts  --      0.0010                 0.0005                 0.0086
 IR Inten    --      1.5164                 2.8035                 1.9939

                      4                      5                      6
                      A                      A                      A
 Frequencies --     53.7860                62.2735                73.0638
 Red. masses --      4.1269                 5.4215                 3.9686
 Frc consts  --      0.0070                 0.0124                 0.0125
 IR Inten    --      2.2502                 2.4306                 2.0200

                      7                      8                      9
                      A                      A                      A
 Frequencies --     93.1466                97.3964               133.9614
 Red. masses --     17.8256                 4.9635                 5.5086
 Frc consts  --      0.0911                 0.0277                 0.0582
 IR Inten    --      0.0325                 0.1692                 7.5927

                     10                     11                     12
                      A                      A                      A
 Frequencies --    137.8266               164.4248               187.3249
 Red. masses --      8.1561                12.8702                 2.8038
 Frc consts  --      0.0913                 0.2050                 0.0580
 IR Inten    --      0.0969                 0.1179                 0.6840

                     13                     14                     15
                      A                      A                      A
 Frequencies --    200.2166               231.8635               237.4183
 Red. masses --      7.9646                 5.9506                 1.5750
 Frc consts  --      0.1881                 0.1885                 0.0523
 IR Inten    --      0.0950                 2.3047                 2.1011

                     16                     17                     18
                      A                      A                      A
 Frequencies --    239.3006               256.4778               314.8572
 Red. masses --      2.3614                14.0562                 6.4525
 Frc consts  --      0.0797                 0.5448                 0.3769
 IR Inten    --      2.6299                 3.2230                 1.8009

                     19                     20                     21
                      A                      A                      A
 Frequencies --    335.8652               341.2166               352.0741
 Red. masses --      2.7766                12.9426                 7.0563
 Frc consts  --      0.1845                 0.8878                 0.5153
 IR Inten    --     53.9451                 0.8493                 0.1463

                     22                     23                     24
                      A                      A                      A
 Frequencies --    360.6275               424.0935               427.3328
 Red. masses --      1.6422                 5.0990                 6.0749
 Frc consts  --      0.1258                 0.5403                 0.6536
 IR Inten    --     35.3342                 3.7366                19.4872

                     25                     26                     27
                      A                      A                      A
 Frequencies --    472.1585               483.1299               503.9170
 Red. masses --      7.1863                 5.9969                 2.1728
 Frc consts  --      0.9439                 0.8247                 0.3251
 IR Inten    --      1.0423                 1.4028                45.4099

                     28                     29                     30
                      A                      A                      A
 Frequencies --    517.3104               540.5414               575.9295
 Red. masses --      1.8050                11.2671                14.3424
 Frc consts  --      0.2846                 1.9396                 2.8029
 IR Inten    --    100.1692                 0.5585                 2.1230

                     31                     32                     33
                      A                      A                      A
 Frequencies --    607.8946               624.8032               656.0475
 Red. masses --      5.3395                 8.3618                 6.0996
 Frc consts  --      1.1625                 1.9232                 1.5467
 IR Inten    --     15.5457                 3.6762                 0.2326

                     34                     35                     36
                      A                      A                      A
 Frequencies --    668.1705               678.1245               755.5929
 Red. masses --      7.3216                 8.3439                 1.2495
 Frc consts  --      1.9259                 2.2607                 0.4203
 IR Inten    --      3.3537                 8.9619                 7.7727

                     37                     38                     39
                      A                      A                      A
 Frequencies --    762.0500               768.2806               776.1238
 Red. masses --      4.1206                 8.4365                 4.6067
 Frc consts  --      1.4099                 2.9340                 1.6349
 IR Inten    --      2.5592                 6.1042                 5.6112

                     40                     41                     42
                      A                      A                      A
 Frequencies --    784.9318               821.9147               879.9872
 Red. masses --     10.9418                 6.5008                 1.4174
 Frc consts  --      3.9719                 2.5874                 0.6467
 IR Inten    --     10.7887                 6.8862                38.8061

                     43                     44                     45
                      A                      A                      A
 Frequencies --    903.6246               904.1415               918.2898
 Red. masses --      1.1943                 1.5528                 2.5334
 Frc consts  --      0.5746                 0.7479                 1.2587
 IR Inten    --      4.0338                24.9741                 6.2510

                     46                     47                     48
                      A                      A                      A
 Frequencies --    947.9944              1011.5865              1047.6052
 Red. masses --      2.7159                 1.3296                 4.2154
 Frc consts  --      1.4380                 0.8016                 2.7258
 IR Inten    --      9.5090                 0.4226                15.2531

                     49                     50                     51
                      A                      A                      A
 Frequencies --   1051.4432              1077.6561              1131.7509
 Red. masses --      6.3136                 2.7219                 3.8721
 Frc consts  --      4.1125                 1.8624                 2.9221
 IR Inten    --     56.9405                25.0897               142.2840

                     52                     53                     54
                      A                      A                      A
 Frequencies --   1149.4800              1165.4057              1172.1985
 Red. masses --      2.7500                 2.6903                 2.3028
 Frc consts  --      2.1408                 2.1528                 1.8643
 IR Inten    --     13.8133                 2.2175                54.4837

                     55                     56                     57
                      A                      A                      A
 Frequencies --   1182.0533              1194.6741              1217.8411
 Red. masses --      1.7134                12.7862                 2.8195
 Frc consts  --      1.4106                10.7521                 2.4638
 IR Inten    --      0.1221                23.5886               309.6954

                     58                     59                     60
                      A                      A                      A
 Frequencies --   1231.6906              1233.6507              1244.5822
 Red. masses --      4.0002                 2.5734                 5.4240
 Frc consts  --      3.5755                 2.3075                 4.9501
 IR Inten    --    407.1865               549.0406                61.8193

                     61                     62                     63
                      A                      A                      A
 Frequencies --   1283.2314              1292.3644              1323.9986
 Red. masses --      1.9234                 1.5455                 2.1231
 Frc consts  --      1.8661                 1.5209                 2.1928
 IR Inten    --     71.4911               118.3281               113.6838

                     64                     65                     66
                      A                      A                      A
 Frequencies --   1334.3340              1346.0266              1350.4209
 Red. masses --      1.1963                 2.1680                 1.8615
 Frc consts  --      1.2549                 2.3143                 2.0001
 IR Inten    --     36.2593                51.1492               137.8738

                     67                     68                     69
                      A                      A                      A
 Frequencies --   1358.1845              1375.6721              1424.8154
 Red. masses --      2.6651                 4.2455                 1.5206
 Frc consts  --      2.8966                 4.7338                 1.8188
 IR Inten    --     93.5645               716.4803                 0.1834

                     70                     71                     72
                      A                      A                      A
 Frequencies --   1432.1916              1455.3606              1509.5218
 Red. masses --      1.3009                 3.0549                 1.0606
 Frc consts  --      1.5722                 3.8123                 1.4240
 IR Inten    --      2.8189                 7.0965                 5.5784

                     73                     74                     75
                      A                      A                      A
 Frequencies --   1522.1282              1523.8732              1537.5473
 Red. masses --      1.0400                 1.0705                 1.1257
 Frc consts  --      1.4197                 1.4646                 1.5679
 IR Inten    --     13.6033                 2.2470                 5.1672

                     76                     77                     78
                      A                      A                      A
 Frequencies --   1551.4227              1580.6450              1587.4315
 Red. masses --      1.7030                 3.3344                 2.3665
 Frc consts  --      2.4151                 4.9083                 3.5136
 IR Inten    --    309.8826                 0.5099               898.0685

                     79                     80                     81
                      A                      A                      A
 Frequencies --   1665.4858              1696.7970              1821.9698
 Red. masses --      5.1323                 6.2922                 8.5529
 Frc consts  --      8.3877                10.6736                16.7280
 IR Inten    --     12.7219                85.6762               285.6758

                     82                     83                     84
                      A                      A                      A
 Frequencies --   3053.1889              3056.5750              3072.5629
 Red. masses --      1.0638                 1.0725                 1.0370
 Frc consts  --      5.8429                 5.9035                 5.7683
 IR Inten    --     15.8156                32.7420                28.5063

                     85                     86                     87
                      A                      A                      A
 Frequencies --   3099.4974              3135.2067              3143.8788
 Red. masses --      1.0958                 1.0977                 1.1018
 Frc consts  --      6.2023                 6.3571                 6.4164
 IR Inten    --     13.2160                 0.8794                44.8596

                     88                     89                     90
                      A                      A                      A
 Frequencies --   3150.7369              3225.1859              3245.6042
 Red. masses --      1.1020                 1.0909                 1.0912
 Frc consts  --      6.4457                 6.6854                 6.7722
 IR Inten    --     25.1767                 3.4036                 0.1903

                     91                     92                     93
                      A                      A                      A
 Frequencies --   3289.8523              3638.4935              3651.2082
 Red. masses --      1.0937                 1.0773                 1.0768
 Frc consts  --      6.9740                 8.4029                 8.4578
 IR Inten    --      9.6192                16.9891                36.3427

 - Thermochemistry -
 -------------------
 Temperature   298.150 Kelvin.  Pressure   1.00000 Atm.
 Atom     1 has atomic number  6 and mass  12.00000

 Molecular mass:   314.08538 amu.
 Principal axes and moments of inertia in atomic units:
                           1         2         3
     Eigenvalues --  2604.37405********************
           X            0.99999   0.00392  -0.00015
           Y           -0.00392   0.99999   0.00007
           Z            0.00015  -0.00007   1.00000
 This molecule is an asymmetric top.
 Rotational symmetry number  1.
 Warning -- assumption of classical behavior for rotation
           may cause significant error
 Rotational temperatures (Kelvin)      0.03326     0.00534     0.00477
 Rotational constants (GHZ):           0.69297     0.11131     0.09947
 Zero-point vibrational energy     635270.5 (Joules/Mol)
                                  151.83329 (Kcal/Mol)
 Warning -- explicit consideration of  31 degrees of freedom as
           vibrations may cause significant error
 Vibrational temperatures:     25.73    26.67    71.90    77.39    89.60
          (Kelvin)            105.12   134.02   140.13   192.74   198.30
                              236.57   269.52   288.07   333.60   341.59
                              344.30   369.01   453.01   483.23   490.93
                              506.56   518.86   610.18   614.84   679.33
                              695.12   725.02   744.29   777.72   828.63
                              874.62   898.95   943.90   961.35   975.67
                             1087.13  1096.42  1105.38  1116.67  1129.34
                             1182.55  1266.10  1300.11  1300.86  1321.21
                             1363.95  1455.45  1507.27  1512.79  1550.50
                             1628.34  1653.84  1676.76  1686.53  1700.71
                             1718.87  1752.20  1772.13  1774.95  1790.67
                             1846.28  1859.42  1904.94  1919.81  1936.63
                             1942.95  1954.12  1979.28  2049.99  2060.60
                             2093.94  2171.86  2190.00  2192.51  2212.18
                             2232.15  2274.19  2283.96  2396.26  2441.31
                             2621.40  4392.85  4397.72  4420.73  4459.48
                             4510.86  4523.33  4533.20  4640.32  4669.69
                             4733.36  5234.97  5253.27

 Zero-point correction=                           0.241962 (Hartree/Particle)
 Thermal correction to Energy=                    0.262037
 Thermal correction to Enthalpy=                  0.262981
 Thermal correction to Gibbs Free Energy=         0.190227
 Sum of electronic and zero-point Energies=          -1248.003769
 Sum of electronic and thermal Energies=             -1247.983694
 Sum of electronic and thermal Enthalpies=           -1247.982750
 Sum of electronic and thermal Free Energies=        -1248.055505

                     E (Thermal)             CV                S
                      KCal/Mol        Cal/Mol-Kelvin    Cal/Mol-Kelvin
 Total                  164.431             72.908            153.125
 Electronic               0.000              0.000              0.000
 Translational            0.889              2.981             43.130
 Rotational               0.889              2.981             34.992
 Vibrational            162.653             66.947             75.003
 Vibration     1          0.593              1.986              6.857
 Vibration     2          0.593              1.986              6.785
 Vibration     3          0.595              1.978              4.818
 Vibration     4          0.596              1.976              4.673
 Vibration     5          0.597              1.972              4.384
 Vibration     6          0.599              1.967              4.069
 Vibration     7          0.602              1.954              3.593
 Vibration     8          0.603              1.951              3.506
 Vibration     9          0.613              1.919              2.888
 Vibration    10          0.614              1.916              2.834
 Vibration    11          0.623              1.886              2.498
 Vibration    12          0.632              1.857              2.254
 Vibration    13          0.638              1.840              2.131
 Vibration    14          0.653              1.792              1.864
 Vibration    15          0.656              1.783              1.822
 Vibration    16          0.657              1.780              1.808
 Vibration    17          0.666              1.752              1.686
 Vibration    18          0.702              1.645              1.337
 Vibration    19          0.717              1.604              1.232
 Vibration    20          0.721              1.593              1.206
 Vibration    21          0.729              1.571              1.157
 Vibration    22          0.735              1.553              1.119
 Vibration    23          0.786              1.418              0.878
 Vibration    24          0.789              1.411              0.867
 Vibration    25          0.829              1.312              0.732
 Vibration    26          0.839              1.287              0.702
 Vibration    27          0.859              1.241              0.648
 Vibration    28          0.872              1.212              0.616
 Vibration    29          0.896              1.160              0.564
 Vibration    30          0.932              1.083              0.493
 Vibration    31          0.967              1.015              0.436

 Optimization completed.
    -- Stationary point found.
 Normal termination of Gaussian 09 at Thu Nov 14 10:24:11 2019.
