 Gaussian 09, Revision E.01,

 ----------------------------------------------------------------------
 # M062X/6-311+G* SCF=Tight INT(grid=ultrafine) OPT IOP(2/17=4) Empiric
 alDispersion=GD3 SCRF=(SMD,Solvent=h2o) maxdisk=2684354560
 ----------------------------------------------------------------------

 -----------------------------------
 NM2_c2.M062X_6-311pGd_opt_water_GD3
 -----------------------------------
 Symbolic Z-matrix:
 Charge =  0 Multiplicity = 1

 SCF Done:  E(RM062X) =  -1248.26445662     A.U. after   15 cycles
 Optimization completed.
    -- Stationary point found.
 Normal termination of Gaussian 09 at Thu Nov 14 09:36:07 2019.
 Gaussian 09:  ES64L-G09RevE.01 30-Nov-2015

 ----------------------------------------------------------------------
 # M062X/6-311+G* SCF=Tight INT(grid=ultrafine) SCRF=(SMD,Solvent=h2o)
 EmpiricalDispersion=GD3 Freq=Noraman maxdisk=2684354560 geom=check gue
 ss=read IOP(2/17=4)
 ----------------------------------------------------------------------

 -----------------------------------
 NM2_c2.M062X_6-311pGd_opt_water_GD3
 -----------------------------------
 Structure from the checkpoint file:  "NM2_c2.M062X_6-311pGd_opt_water_GD3.chk"
 Charge =  0 Multiplicity = 1

                         Standard orientation:
 ---------------------------------------------------------------------
 Center     Atomic      Atomic             Coordinates (Angstroms)
 Number     Number       Type             X           Y           Z
 ---------------------------------------------------------------------
      1          6           0        0.571805   -0.067720   -0.179639
      2          7           0        1.887441    0.376882   -0.254491
      3          6           0        3.033907   -0.360660   -0.003967
      4          8           0        3.009061   -1.554962    0.298302
      5          7           0        4.180062    0.337890   -0.111919
      6          6           0        5.472498   -0.296470    0.118623
      7          6           0        6.595467    0.706719   -0.084663
      8          6           0        7.955957    0.063545    0.153611
      9          6           0       -0.424913    0.915707   -0.087008
     10          6           0       -1.763225    0.575219   -0.024717
     11          6           0       -2.148711   -0.774788   -0.063888
     12          6           0       -1.156740   -1.742335   -0.160208
     13          6           0        0.189404   -1.409083   -0.223796
     14          1           0        2.004160    1.378294   -0.353911
     15          1           0        4.161540    1.308828   -0.393635
     16          1           0        5.591496   -1.139595   -0.567902
     17          1           0        5.503313   -0.696465    1.135996
     18          1           0        6.453982    1.549894    0.598581
     19          1           0        6.542109    1.106081   -1.102296
     20          1           0        8.034328   -0.322609    1.173139
     21          1           0        8.762307    0.784301    0.006285
     22          1           0        8.122015   -0.769724   -0.533979
     23          1           0       -0.129381    1.957846   -0.057578
     24          1           0        0.926055   -2.190961   -0.316568
     25          6           0       -3.576843   -1.234087    0.025673
     26          6           0       -2.757183    1.708125    0.053386
     27          1           0       -1.431335   -2.788829   -0.197425
     28          9           0       -4.410680   -0.494579   -0.724791
     29          9           0       -4.056045   -1.196081    1.283659
     30          9           0       -3.718263   -2.501703   -0.387401
     31          9           0       -2.181991    2.853465    0.442425
     32          9           0       -3.746742    1.463709    0.925456
     33          9           0       -3.334517    1.958990   -1.134091
 ---------------------------------------------------------------------

 SCF Done:  E(RM062X) =  -1248.26445662     A.U. after    2 cycles

 The electronic state is 1-A.
 Alpha  occ. eigenvalues --  -25.28920 -25.28851 -25.28680 -25.28598 -25.28566
 Alpha  occ. eigenvalues --  -25.28240 -19.60188 -14.79272 -14.77234 -10.81704
 Alpha  occ. eigenvalues --  -10.81418 -10.68768 -10.61828 -10.59778 -10.58783
 Alpha  occ. eigenvalues --  -10.57087 -10.57044 -10.56700 -10.55924 -10.53074
 Alpha  occ. eigenvalues --  -10.51760  -1.48445  -1.47881  -1.39005  -1.38636
 Alpha  occ. eigenvalues --   -1.38484  -1.38179  -1.19030  -1.07205  -1.03800
 Alpha  occ. eigenvalues --   -0.99742  -0.90657  -0.90173  -0.87778  -0.83436
 Alpha  occ. eigenvalues --   -0.81440  -0.78225  -0.75096  -0.74057  -0.70873
 Alpha  occ. eigenvalues --   -0.70795  -0.70540  -0.70000  -0.69946  -0.68759
 Alpha  occ. eigenvalues --   -0.68219  -0.64587  -0.63830  -0.60114  -0.59181
 Alpha  occ. eigenvalues --   -0.59120  -0.58341  -0.58226  -0.56433  -0.56054
 Alpha  occ. eigenvalues --   -0.55443  -0.54850  -0.54413  -0.53807  -0.53507
 Alpha  occ. eigenvalues --   -0.52805  -0.52585  -0.52397  -0.52131  -0.51351
 Alpha  occ. eigenvalues --   -0.50469  -0.49362  -0.47923  -0.46819  -0.45477
 Alpha  occ. eigenvalues --   -0.45447  -0.43683  -0.42140  -0.40145  -0.39978
 Alpha  occ. eigenvalues --   -0.39087  -0.36612  -0.33980  -0.33254  -0.28959
 Alpha virt. eigenvalues --   -0.01917  -0.00466   0.01170   0.02316   0.02698
 Alpha virt. eigenvalues --    0.03267   0.03642   0.03776   0.04585   0.04681
 Alpha virt. eigenvalues --    0.05198   0.05505   0.06340   0.06563   0.06797

 Mulliken charges:
               1
     1  C   -0.622495
     2  N   -0.360927
     3  C    0.138569
     4  O   -0.521429
     5  N   -0.397891
     6  C   -0.533957
     7  C   -0.141934
     8  C   -1.047475
     9  C   -0.198220
    10  C   -0.686419
    11  C   -0.671564
    12  C   -0.383675
    13  C    0.316813
    14  H    0.441374
    15  H    0.451246
    16  H    0.277904
    17  H    0.277507
    18  H    0.267657
    19  H    0.267758
    20  H    0.270203
    21  H    0.280432
    22  H    0.269359
    23  H    0.322410
    24  H    0.318436
    25  C    0.790288
    26  C    1.091562
    27  H    0.320983
    28  F   -0.095007
    29  F   -0.060838
    30  F   -0.126276
    31  F   -0.120154
    32  F   -0.084694
    33  F   -0.049547
 Sum of Mulliken charges =  -0.00000

 Dipole moment (field-independent basis, Debye):
    X=              9.1633    Y=              4.8826    Z=             -1.7751  Tot=             10.5336
 Quadrupole moment (field-independent basis, Debye-Ang):
   XX=           -118.5758   YY=           -120.2890   ZZ=           -124.4481
   XY=             20.9327   XZ=             -3.9104   YZ=              0.9193

  Exact polarizability: 286.109   7.400 225.648  -1.881  -2.761 150.884
 Approx polarizability: 226.935   6.208 201.888  -2.336  -2.339 138.416

                      1                      2                      3
                      A                      A                      A
 Frequencies --     16.3362                25.9484                47.5625
 Red. masses --      6.4410                 5.4295                 5.2083
 Frc consts  --      0.0010                 0.0022                 0.0069
 IR Inten    --     12.6351                27.8886                 1.0146

                      4                      5                      6
                      A                      A                      A
 Frequencies --     55.0286                60.7209                68.1136
 Red. masses --      1.5933                 6.1069                10.2862
 Frc consts  --      0.0028                 0.0133                 0.0281
 IR Inten    --     17.2605                 2.1958                 1.8892

                      7                      8                      9
                      A                      A                      A
 Frequencies --     93.3680                94.2424               139.5181
 Red. masses --     18.3697                 5.3732                 7.2407
 Frc consts  --      0.0944                 0.0281                 0.0830
 IR Inten    --      0.0809                 0.5078                 2.0407

                     10                     11                     12
                      A                      A                      A
 Frequencies --    144.2079               151.5174               165.8133
 Red. masses --      3.5290                 4.4137                12.7814
 Frc consts  --      0.0432                 0.0597                 0.2070
 IR Inten    --     14.1302                 7.7270                 0.7862

                     13                     14                     15
                      A                      A                      A
 Frequencies --    200.9325               228.5657               246.6598
 Red. masses --      8.1378                 7.1129                 4.3379
 Frc consts  --      0.1936                 0.2189                 0.1555
 IR Inten    --      0.9211                 4.6737                 3.7334

                     16                     17                     18
                      A                      A                      A
 Frequencies --    249.6557               257.0942               318.9750
 Red. masses --      1.1974                11.8979                 1.6296
 Frc consts  --      0.0440                 0.4633                 0.0977
 IR Inten    --      1.2780                 7.6813                49.3637

                     19                     20                     21
                      A                      A                      A
 Frequencies --    319.3602               340.3499               344.8344
 Red. masses --      2.6071                12.5940                 5.0154
 Frc consts  --      0.1567                 0.8595                 0.3514
 IR Inten    --     23.4730                 0.3513                21.1428

                     22                     23                     24
                      A                      A                      A
 Frequencies --    354.1644               422.7113               425.4090
 Red. masses --      5.9458                 5.1827                 7.2975
 Frc consts  --      0.4394                 0.5456                 0.7781
 IR Inten    --      1.7507                12.2179                34.7955

                     25                     26                     27
                      A                      A                      A
 Frequencies --    472.1172               483.5259               505.9144
 Red. masses --      7.4562                 5.9138                 5.3056
 Frc consts  --      0.9792                 0.8146                 0.8001
 IR Inten    --      3.3362                 4.0325                30.9289

                     28                     29                     30
                      A                      A                      A
 Frequencies --    536.4013               542.5597               574.4806
 Red. masses --      2.3864                 1.9172                14.4493
 Frc consts  --      0.4046                 0.3325                 2.8096
 IR Inten    --    144.9569               121.3870                 2.6481

                     31                     32                     33
                      A                      A                      A
 Frequencies --    605.0367               623.3938               653.8444
 Red. masses --      5.3429                 8.7075                 6.1554
 Frc consts  --      1.1524                 1.9937                 1.5504
 IR Inten    --     24.4473                 1.6204                 0.9835

                     34                     35                     36
                      A                      A                      A
 Frequencies --    666.6114               675.0937               758.0703
 Red. masses --      7.3074                 8.8399                 4.1888
 Frc consts  --      1.9132                 2.3737                 1.4183
 IR Inten    --      8.5918                15.9925                 5.1563

                     37                     38                     39
                      A                      A                      A
 Frequencies --    760.5579               765.2270               777.2991
 Red. masses --      1.2374                 8.9925                 4.8453
 Frc consts  --      0.4217                 3.1025                 1.7248
 IR Inten    --     16.8754                10.1568                13.0657

                     40                     41                     42
                      A                      A                      A
 Frequencies --    781.3053               820.9455               866.0699
 Red. masses --     10.8387                 6.9047                 1.4724
 Frc consts  --      3.8982                 2.7417                 0.6507
 IR Inten    --     10.0958                17.2507                79.0890

                     43                     44                     45
                      A                      A                      A
 Frequencies --    909.4235               917.1992               922.6212
 Red. masses --      1.1539                 1.9592                 1.8666
 Frc consts  --      0.5623                 0.9711                 0.9361
 IR Inten    --      2.4372                41.6153                31.0360

                     46                     47                     48
                      A                      A                      A
 Frequencies --    946.8485              1003.2369              1045.5032
 Red. masses --      2.6673                 1.3438                 6.7733
 Frc consts  --      1.4089                 0.7969                 4.3621
 IR Inten    --     12.2973                 5.7093                84.8598

                     49                     50                     51
                      A                      A                      A
 Frequencies --   1052.3093              1082.2561              1122.9458
 Red. masses --      4.2380                 2.6835                 3.9109
 Frc consts  --      2.7650                 1.8519                 2.9057
 IR Inten    --     46.8278                50.3866               296.8036

                     52                     53                     54
                      A                      A                      A
 Frequencies --   1141.1306              1145.0701              1157.3247
 Red. masses --     10.3391                 3.3034                10.2879
 Frc consts  --      7.9324                 2.5519                 8.1187
 IR Inten    --    168.9940               122.2502               727.6678

                     55                     56                     57
                      A                      A                      A
 Frequencies --   1163.8214              1174.8531              1182.9930
 Red. masses --      2.9094                 3.8170                 1.6199
 Frc consts  --      2.3218                 3.1041                 1.3357
 IR Inten    --     55.8589                25.0566                 0.0293

                     58                     59                     60
                      A                      A                      A
 Frequencies --   1194.2416              1199.2784              1262.6413
 Red. masses --      1.9792                 6.3178                 1.8623
 Frc consts  --      1.6631                 5.3537                 1.7492
 IR Inten    --    378.7996               402.9104               713.2840

                     61                     62                     63
                      A                      A                      A
 Frequencies --   1288.1238              1298.4741              1327.8405
 Red. masses --      1.1866                 3.0136                 2.0912
 Frc consts  --      1.1600                 2.9937                 2.1724
 IR Inten    --      3.1991               280.3745               146.7187

                     64                     65                     66
                      A                      A                      A
 Frequencies --   1335.8697              1343.9728              1344.9582
 Red. masses --      1.0691                 3.3419                 1.8889
 Frc consts  --      1.1241                 3.5565                 2.0131
 IR Inten    --      0.3861               490.7459               123.7723

                     67                     68                     69
                      A                      A                      A
 Frequencies --   1353.1524              1374.2949              1417.0174
 Red. masses --      2.3317                 3.1186                 1.2637
 Frc consts  --      2.5154                 3.4703                 1.4950
 IR Inten    --     34.5899               789.1786                 2.5913

                     70                     71                     72
                      A                      A                      A
 Frequencies --   1426.2353              1459.4433              1486.6593
 Red. masses --      1.6372                 3.6901                 1.0583
 Frc consts  --      1.9622                 4.6309                 1.3781
 IR Inten    --     19.9867                17.0200                 8.5124

                     73                     74                     75
                      A                      A                      A
 Frequencies --   1501.8402              1509.8967              1530.0647
 Red. masses --      1.0384                 1.0793                 1.0887
 Frc consts  --      1.3799                 1.4497                 1.5016
 IR Inten    --     13.8861                 6.2815                43.9048

                     76                     77                     78
                      A                      A                      A
 Frequencies --   1571.2619              1579.0660              1586.4523
 Red. masses --      2.4957                 2.4529                 2.6777
 Frc consts  --      3.6302                 3.6035                 3.9708
 IR Inten    --   1173.9331               205.3936               425.7195

                     79                     80                     81
                      A                      A                      A
 Frequencies --   1666.8566              1686.7278              1711.8038
 Red. masses --      6.1652                 4.4982                 3.3813
 Frc consts  --     10.0923                 7.5401                 5.8377
 IR Inten    --    152.5553                14.3649               754.1595

                     82                     83                     84
                      A                      A                      A
 Frequencies --   3068.1064              3068.6974              3076.8264
 Red. masses --      1.0602                 1.0371                 1.0580
 Frc consts  --      5.8799                 5.7544                 5.9013
 IR Inten    --      9.8088                26.3810                95.3280

                     85                     86                     87
                      A                      A                      A
 Frequencies --   3098.9619              3119.3245              3138.0460
 Red. masses --      1.1039                 1.1073                 1.1043
 Frc consts  --      6.2463                 6.3479                 6.4073
 IR Inten    --      0.1015                36.7778                99.3244

                     88                     89                     90
                      A                      A                      A
 Frequencies --   3145.7132              3240.8336              3249.9132
 Red. masses --      1.1025                 1.0922                 1.0917
 Frc consts  --      6.4277                 6.7584                 6.7936
 IR Inten    --     46.4188                 2.9964                 0.0349

                     91                     92                     93
                      A                      A                      A
 Frequencies --   3288.9360              3618.4518              3637.9885
 Red. masses --      1.0941                 1.0781                 1.0791
 Frc consts  --      6.9727                 8.3168                 8.4150
 IR Inten    --      6.0534                62.8484               216.5891

 - Thermochemistry -
 -------------------
 Temperature   298.150 Kelvin.  Pressure   1.00000 Atm.
 Atom     1 has atomic number  6 and mass  12.00000

 Molecular mass:   314.08538 amu.
 Principal axes and moments of inertia in atomic units:
                           1         2         3
     Eigenvalues --  2607.06883********************
           X            0.99999   0.00429   0.00080
           Y           -0.00429   0.99999  -0.00082
           Z           -0.00081   0.00082   1.00000
 This molecule is an asymmetric top.
 Rotational symmetry number  1.
 Warning -- assumption of classical behavior for rotation
           may cause significant error
 Rotational temperatures (Kelvin)      0.03322     0.00536     0.00480
 Rotational constants (GHZ):           0.69225     0.11169     0.09991
 Zero-point vibrational energy     632914.6 (Joules/Mol)
                                  151.27021 (Kcal/Mol)
 Warning -- explicit consideration of  31 degrees of freedom as
           vibrations may cause significant error
 Vibrational temperatures:     23.50    37.33    68.43    79.17    87.36
          (Kelvin)             98.00   134.34   135.59   200.74   207.48
                              218.00   238.57   289.10   328.85   354.89
                              359.20   369.90   458.93   459.49   489.69
                              496.14   509.56   608.19   612.07   679.27
                              695.69   727.90   771.76   780.62   826.55
                              870.51   896.92   940.74   959.10   971.31
                             1090.69  1094.27  1100.99  1118.36  1124.12
                             1181.16  1246.08  1308.46  1319.64  1327.44
                             1362.30  1443.43  1504.24  1514.04  1557.12
                             1615.67  1641.83  1647.50  1665.13  1674.48
                             1690.35  1702.06  1718.25  1725.49  1816.66
                             1853.32  1868.21  1910.46  1922.02  1933.67
                             1935.09  1946.88  1977.30  2038.77  2052.03
                             2099.81  2138.97  2160.81  2172.40  2201.42
                             2260.69  2271.92  2282.55  2398.23  2426.82
                             2462.90  4414.32  4415.17  4426.86  4458.71
                             4488.01  4514.94  4525.97  4662.83  4675.89
                             4732.04  5206.14  5234.25

 Zero-point correction=                           0.241064 (Hartree/Particle)
 Thermal correction to Energy=                    0.261199
 Thermal correction to Enthalpy=                  0.262143
 Thermal correction to Gibbs Free Energy=         0.189370
 Sum of electronic and zero-point Energies=          -1248.023392
 Sum of electronic and thermal Energies=             -1248.003258
 Sum of electronic and thermal Enthalpies=           -1248.002314
 Sum of electronic and thermal Free Energies=        -1248.075087

                     E (Thermal)             CV                S
                      KCal/Mol        Cal/Mol-Kelvin    Cal/Mol-Kelvin
 Total                  163.905             73.105            153.164
 Electronic               0.000              0.000              0.000
 Translational            0.889              2.981             43.130
 Rotational               0.889              2.981             34.986
 Vibrational            162.127             67.144             75.049
 Vibration     1          0.593              1.986              7.036
 Vibration     2          0.593              1.985              6.117
 Vibration     3          0.595              1.979              4.916
 Vibration     4          0.596              1.976              4.628
 Vibration     5          0.597              1.973              4.434
 Vibration     6          0.598              1.969              4.207
 Vibration     7          0.602              1.954              3.588
 Vibration     8          0.603              1.953              3.570
 Vibration     9          0.615              1.914              2.810
 Vibration    10          0.616              1.909              2.747
 Vibration    11          0.619              1.901              2.653
 Vibration    12          0.624              1.884              2.482
 Vibration    13          0.638              1.839              2.125
 Vibration    14          0.651              1.797              1.890
 Vibration    15          0.661              1.768              1.754
 Vibration    16          0.662              1.763              1.733
 Vibration    17          0.667              1.751              1.681
 Vibration    18          0.705              1.637              1.315
 Vibration    19          0.705              1.637              1.313
 Vibration    20          0.720              1.595              1.211
 Vibration    21          0.723              1.586              1.190
 Vibration    22          0.730              1.567              1.148
 Vibration    23          0.785              1.421              0.883
 Vibration    24          0.787              1.415              0.874
 Vibration    25          0.829              1.312              0.732
 Vibration    26          0.840              1.287              0.701
 Vibration    27          0.861              1.237              0.644
 Vibration    28          0.891              1.170              0.573
 Vibration    29          0.898              1.156              0.560
 Vibration    30          0.931              1.086              0.496
 Vibration    31          0.964              1.021              0.441

 Optimization completed.
    -- Stationary point found.
 Normal termination of Gaussian 09 at Thu Nov 14 10:25:35 2019.
