 Gaussian 16, Revision C.01,
 Gaussian 16:  ES64L-G16RevC.01  3-Jul-2019

 ---------------------------------------------------------------------
 # DSDPBEP86/AUG-cc-PVTZ SCF=Tight INT(grid=ultrafine) MaxDisk=60000MB
 ---------------------------------------------------------------------

 ----------------------------
 NM2_c2.DSDPBEP86_AUG-cc-PVTZ
 ----------------------------
 Symbolic Z-matrix:
 Charge =  0 Multiplicity = 1

                         Standard orientation:
 ---------------------------------------------------------------------
 Center     Atomic      Atomic             Coordinates (Angstroms)
 Number     Number       Type             X           Y           Z
 ---------------------------------------------------------------------
      1          6           0        0.565523   -0.043546   -0.051216
      2          7           0        1.883148    0.414358   -0.080751
      3          6           0        3.042573   -0.353770    0.014120
      4          8           0        3.042266   -1.554390    0.172782
      5          7           0        4.189796    0.392248   -0.060377
      6          6           0        5.478121   -0.289424   -0.085038
      7          6           0        6.612680    0.712543    0.069526
      8          6           0        7.973260    0.022991    0.052652
      9          6           0       -0.444334    0.926459   -0.010994
     10          6           0       -1.783180    0.577148    0.004856
     11          6           0       -2.150679   -0.775092   -0.030243
     12          6           0       -1.143133   -1.731408   -0.064085
     13          6           0        0.202532   -1.390928   -0.075496
     14          1           0        1.994477    1.415409   -0.020299
     15          1           0        4.148948    1.294170   -0.512540
     16          1           0        5.593085   -0.862870   -1.012400
     17          1           0        5.486136   -1.008233    0.735775
     18          1           0        6.477326    1.262558    1.005457
     19          1           0        6.565799    1.449352   -0.741209
     20          1           0        8.055415   -0.701456    0.866249
     21          1           0        8.783540    0.744423    0.166525
     22          1           0        8.133181   -0.512270   -0.886305
     23          1           0       -0.175232    1.976104    0.015087
     24          1           0        0.959925   -2.158480   -0.096909
     25          6           0       -3.581492   -1.251107    0.006207
     26          6           0       -2.789907    1.706987    0.018670
     27          1           0       -1.412647   -2.779533   -0.088377
     28          9           0       -4.380276   -0.532879   -0.790985
     29          9           0       -4.099563   -1.203640    1.241586
     30          9           0       -3.675543   -2.527252   -0.397942
     31          9           0       -2.220039    2.860350    0.406832
     32          9           0       -3.802083    1.475596    0.856874
     33          9           0       -3.305882    1.928335   -1.196276
 ---------------------------------------------------------------------

 SCF Done:  E(RDSDPBEP86) =  -1244.84181660     A.U. after   13 cycles
 E2(DSDPBEP86) =    -0.2048985669D+01 E(DSDPBEP86) =    -0.12468908022715D+04

 The electronic state is 1-A.
 Alpha  occ. eigenvalues --  -25.71682 -25.71334 -25.71116 -25.71008 -25.70756
 Alpha  occ. eigenvalues --  -25.70451 -19.98597 -15.14263 -15.11998 -11.09495
 Alpha  occ. eigenvalues --  -11.08854 -10.97997 -10.90701 -10.87966 -10.86649
 Alpha  occ. eigenvalues --  -10.86284 -10.85760 -10.85547 -10.84201 -10.83326
 Alpha  occ. eigenvalues --  -10.81927  -1.58294  -1.57486  -1.48846  -1.48523
 Alpha  occ. eigenvalues --   -1.48094  -1.47783  -1.29569  -1.17161  -1.13447
 Alpha  occ. eigenvalues --   -1.08243  -0.98469  -0.97716  -0.96350  -0.89543
 Alpha  occ. eigenvalues --   -0.87202  -0.85172  -0.80621  -0.79719  -0.76127
 Alpha  occ. eigenvalues --   -0.75498  -0.74574  -0.74421  -0.73924  -0.73432
 Alpha  occ. eigenvalues --   -0.73210  -0.70203  -0.69278  -0.64918  -0.62881
 Alpha  occ. eigenvalues --   -0.62789  -0.61984  -0.61945  -0.61390  -0.60327
 Alpha  occ. eigenvalues --   -0.59669  -0.58951  -0.58395  -0.57615  -0.57331
 Alpha  occ. eigenvalues --   -0.57247  -0.56585  -0.56153  -0.55941  -0.55551
 Alpha  occ. eigenvalues --   -0.54351  -0.53080  -0.52711  -0.51254  -0.49243
 Alpha  occ. eigenvalues --   -0.48923  -0.47627  -0.47260  -0.45202  -0.44558
 Alpha  occ. eigenvalues --   -0.42706  -0.39971  -0.36899  -0.34858  -0.30897
 Alpha virt. eigenvalues --    0.00098   0.01445   0.02223   0.02356   0.02441
 Alpha virt. eigenvalues --    0.03129   0.03287   0.03472   0.04473   0.04758
 Alpha virt. eigenvalues --    0.04907   0.05200   0.05998   0.06416   0.06582

 Mulliken charges:
               1
     1  C    0.689772
     2  N   -0.416055
     3  C    0.298144
     4  O   -0.814448
     5  N   -0.105657
     6  C   -0.130066
     7  C   -0.415451
     8  C   -0.979742
     9  C   -0.975921
    10  C    0.545301
    11  C    0.403797
    12  C   -0.945280
    13  C   -0.345512
    14  H    0.017936
    15  H    0.054490
    16  H    0.289113
    17  H    0.309742
    18  H    0.252697
    19  H    0.235417
    20  H    0.277508
    21  H    0.277023
    22  H    0.274521
    23  H    0.256927
    24  H    0.650588
    25  C    1.216224
    26  C    1.239471
    27  H    0.273140
    28  F   -0.437072
    29  F   -0.408076
    30  F   -0.372785
    31  F   -0.379851
    32  F   -0.430910
    33  F   -0.404986
 Sum of Mulliken charges =  -0.00000

 Dipole moment (field-independent basis, Debye):
    X=              6.8509    Y=              2.5984    Z=             -0.8411  Tot=              7.3752
 Quadrupole moment (field-independent basis, Debye-Ang):
   XX=           -116.9170   YY=           -120.2811   ZZ=           -122.3710
   XY=             12.5514   XZ=             -2.9465   YZ=             -0.1684

 Normal termination of Gaussian 16 at Wed Sep  9 20:09:25 2020.
