 Gaussian 09, Revision E.01,

 ----------------------------------------------------------------------
 # M062X/6-311+G* SCF=Tight INT(grid=ultrafine) OPT IOP(2/17=4) Empiric
 alDispersion=GD3 SCRF=(SMD,Solvent=n-Pentadecane) maxdisk=2684354560
 ----------------------------------------------------------------------

 -----------------------------------------
 NM2_c2.M062X_6-311pGd_opt_Pentadecane_GD3
 -----------------------------------------
 Symbolic Z-matrix:
 Charge =  0 Multiplicity = 1

 SCF Done:  E(RM062X) =  -1248.26058186     A.U. after   16 cycles
 Optimization completed.
    -- Stationary point found.
 Normal termination of Gaussian 09 at Thu Nov 14 09:36:30 2019.
 Gaussian 09:  ES64L-G09RevE.01 30-Nov-2015

 ----------------------------------------------------------------------
 # M062X/6-311+G* SCF=Tight INT(grid=ultrafine) SCRF=(SMD,Solvent=n-Pen
 tadecane) EmpiricalDispersion=GD3 Freq=Noraman maxdisk=2684354560 geom
 =check guess=read IOP(2/17=4)
 ----------------------------------------------------------------------

 -----------------------------------------
 NM2_c2.M062X_6-311pGd_opt_Pentadecane_GD3
 -----------------------------------------
 Structure from the checkpoint file:  "NM2_c2.M062X_6-311pGd_opt_Pentadecane_GD3.chk"
 Charge =  0 Multiplicity = 1

                         Standard orientation:
 ---------------------------------------------------------------------
 Center     Atomic      Atomic             Coordinates (Angstroms)
 Number     Number       Type             X           Y           Z
 ---------------------------------------------------------------------
      1          6           0        0.568532   -0.065259   -0.086085
      2          7           0        1.884870    0.384304   -0.117915
      3          6           0        3.044915   -0.383851   -0.054959
      4          8           0        3.044311   -1.599187   -0.050547
      5          7           0        4.185018    0.360458   -0.020948
      6          6           0        5.479950   -0.286214    0.145104
      7          6           0        6.602791    0.718207   -0.068090
      8          6           0        7.971475    0.069397    0.102627
      9          6           0       -0.434168    0.914329   -0.040275
     10          6           0       -1.774443    0.575068   -0.006089
     11          6           0       -2.154712   -0.775264   -0.023885
     12          6           0       -1.155950   -1.740460   -0.060657
     13          6           0        0.191738   -1.409825   -0.095200
     14          1           0        2.000067    1.385917   -0.183163
     15          1           0        4.129058    1.346520    0.189554
     16          1           0        5.549568   -1.096964   -0.582477
     17          1           0        5.555527   -0.738585    1.140428
     18          1           0        6.495348    1.542860    0.646168
     19          1           0        6.511181    1.149362   -1.069768
     20          1           0        8.090141   -0.346307    1.106442
     21          1           0        8.773465    0.792999   -0.053800
     22          1           0        8.113343   -0.744065   -0.613298
     23          1           0       -0.151293    1.960268   -0.019846
     24          1           0        0.940453   -2.185115   -0.131007
     25          6           0       -3.587420   -1.235968    0.033860
     26          6           0       -2.772152    1.710665    0.011483
     27          1           0       -1.431168   -2.787496   -0.072528
     28          9           0       -4.392437   -0.518150   -0.761247
     29          9           0       -4.097716   -1.169692    1.274482
     30          9           0       -3.705279   -2.515027   -0.353767
     31          9           0       -2.196898    2.864901    0.386109
     32          9           0       -3.780603    1.492195    0.861301
     33          9           0       -3.305148    1.929753   -1.198799
 ---------------------------------------------------------------------

 SCF Done:  E(RM062X) =  -1248.26058186     A.U. after    2 cycles

 The electronic state is 1-A.
 Alpha  occ. eigenvalues --  -25.28712 -25.28437 -25.28174 -25.28133 -25.27942
 Alpha  occ. eigenvalues --  -25.27605 -19.60167 -14.80351 -14.78029 -10.81489
 Alpha  occ. eigenvalues --  -10.80945 -10.68993 -10.62454 -10.60053 -10.58926
 Alpha  occ. eigenvalues --  -10.57792 -10.57687 -10.57442 -10.56241 -10.54528
 Alpha  occ. eigenvalues --  -10.53044  -1.48124  -1.47382  -1.38677  -1.38316
 Alpha  occ. eigenvalues --   -1.37985  -1.37648  -1.19583  -1.08037  -1.04520
 Alpha  occ. eigenvalues --   -1.00062  -0.90989  -0.90414  -0.88654  -0.83467
 Alpha  occ. eigenvalues --   -0.81386  -0.78805  -0.75277  -0.74322  -0.71009
 Alpha  occ. eigenvalues --   -0.70446  -0.70359  -0.69787  -0.69778  -0.69535
 Alpha  occ. eigenvalues --   -0.68514  -0.65256  -0.64609  -0.60489  -0.58744
 Alpha  occ. eigenvalues --   -0.58664  -0.57870  -0.57788  -0.57001  -0.56147
 Alpha  occ. eigenvalues --   -0.55644  -0.54784  -0.54473  -0.53547  -0.53355
 Alpha  occ. eigenvalues --   -0.53214  -0.52654  -0.52011  -0.51643  -0.51475
 Alpha  occ. eigenvalues --   -0.50574  -0.49458  -0.48885  -0.47702  -0.46180
 Alpha  occ. eigenvalues --   -0.45485  -0.44037  -0.43402  -0.41391  -0.40929
 Alpha  occ. eigenvalues --   -0.40041  -0.36271  -0.34364  -0.33559  -0.29544
 Alpha virt. eigenvalues --   -0.02021  -0.00907  -0.00492   0.01819   0.02116
 Alpha virt. eigenvalues --    0.02984   0.03149   0.03362   0.04365   0.04593
 Alpha virt. eigenvalues --    0.04940   0.05119   0.06130   0.06319   0.06702

 Mulliken charges:
               1
     1  C   -0.659175
     2  N   -0.391497
     3  C    0.150003
     4  O   -0.360607
     5  N   -0.317349
     6  C   -0.496841
     7  C   -0.132245
     8  C   -1.039458
     9  C   -0.430116
    10  C   -0.676271
    11  C   -0.683689
    12  C   -0.050497
    13  C    0.125729
    14  H    0.379914
    15  H    0.357749
    16  H    0.270763
    17  H    0.271156
    18  H    0.244314
    19  H    0.266012
    20  H    0.264867
    21  H    0.274207
    22  H    0.266241
    23  H    0.282284
    24  H    0.320660
    25  C    0.796396
    26  C    1.123099
    27  H    0.298465
    28  F   -0.075523
    29  F   -0.043720
    30  F   -0.118374
    31  F   -0.120284
    32  F   -0.061506
    33  F   -0.034708
 Sum of Mulliken charges =   0.00000

 Dipole moment (field-independent basis, Debye):
    X=              8.0324    Y=              3.1978    Z=              0.2340  Tot=              8.6487
 Quadrupole moment (field-independent basis, Debye-Ang):
   XX=           -117.7555   YY=           -120.4803   ZZ=           -124.2089
   XY=             15.2879   XZ=              1.9465   YZ=              0.5901

  Exact polarizability: 252.141   5.679 175.469  -0.078  -0.276 114.889
 Approx polarizability: 223.761   5.183 204.738  -0.834   0.118 137.123

                      1                      2                      3
                      A                      A                      A
 Frequencies --     23.4144                35.3422                51.8888
 Red. masses --      5.3304                 3.1713                 4.6923
 Frc consts  --      0.0017                 0.0023                 0.0074
 IR Inten    --      0.2117                 7.6952                 4.2744

                      4                      5                      6
                      A                      A                      A
 Frequencies --     57.9172                63.1152                76.7485
 Red. masses --      5.4406                 3.5294                 4.2679
 Frc consts  --      0.0108                 0.0083                 0.0148
 IR Inten    --      0.4508                 5.0026                 3.0565

                      7                      8                      9
                      A                      A                      A
 Frequencies --     93.4181               102.7353               133.1056
 Red. masses --     18.4738                 4.3100                 5.6775
 Frc consts  --      0.0950                 0.0268                 0.0593
 IR Inten    --      0.0629                 0.1747                 7.2978

                     10                     11                     12
                      A                      A                      A
 Frequencies --    144.2494               165.5049               183.3814
 Red. masses --      8.1294                12.1024                 3.5944
 Frc consts  --      0.0997                 0.1953                 0.0712
 IR Inten    --      1.8792                 0.1279                 4.4495

                     13                     14                     15
                      A                      A                      A
 Frequencies --    200.5604               232.5330               244.6274
 Red. masses --      7.9864                 4.6315                 5.5679
 Frc consts  --      0.1893                 0.1476                 0.1963
 IR Inten    --      0.3617                 4.0773                 4.1446

                     16                     17                     18
                      A                      A                      A
 Frequencies --    248.6250               256.7269               315.6654
 Red. masses --      1.1951                13.8314                 1.3387
 Frc consts  --      0.0435                 0.5371                 0.0786
 IR Inten    --      0.0164                 4.1487                78.0196

                     19                     20                     21
                      A                      A                      A
 Frequencies --    320.4411               340.7688               344.8107
 Red. masses --      7.2584                10.4567                 3.5096
 Frc consts  --      0.4391                 0.7154                 0.2459
 IR Inten    --      0.1546                 2.0442                 5.2763

                     22                     23                     24
                      A                      A                      A
 Frequencies --    349.4068               423.7890               427.2026
 Red. masses --      6.1117                 5.5446                 6.3432
 Frc consts  --      0.4396                 0.5867                 0.6821
 IR Inten    --      2.1748                10.9943                16.2503

                     25                     26                     27
                      A                      A                      A
 Frequencies --    472.2227               483.1219               507.9195
 Red. masses --      7.5374                 6.0908                 5.0538
 Frc consts  --      0.9903                 0.8376                 0.7682
 IR Inten    --      2.0344                 1.0896                22.6392

                     28                     29                     30
                      A                      A                      A
 Frequencies --    539.4211               542.9386               575.7599
 Red. masses --      3.1985                 1.5646                14.5849
 Frc consts  --      0.5483                 0.2717                 2.8486
 IR Inten    --     64.0490               101.4812                 2.5435

                     31                     32                     33
                      A                      A                      A
 Frequencies --    608.1721               623.8083               656.9411
 Red. masses --      5.5794                 8.7045                 6.0295
 Frc consts  --      1.2159                 1.9957                 1.5331
 IR Inten    --     18.9452                 1.3773                 0.6079

                     34                     35                     36
                      A                      A                      A
 Frequencies --    665.6459               676.4068               757.5537
 Red. masses --      7.4437                 8.6239                 1.2400
 Frc consts  --      1.9432                 2.3247                 0.4193
 IR Inten    --      5.1642                11.4660                 8.7575

                     37                     38                     39
                      A                      A                      A
 Frequencies --    761.8299               766.9746               779.0081
 Red. masses --      3.9533                 8.4120                 5.4307
 Frc consts  --      1.3518                 2.9155                 1.9417
 IR Inten    --      3.0106                 6.4340                 4.9116

                     40                     41                     42
                      A                      A                      A
 Frequencies --    783.3946               818.8050               878.8772
 Red. masses --     10.0725                 7.1673                 1.4179
 Frc consts  --      3.6421                 2.8312                 0.6453
 IR Inten    --      9.0597                 5.3193                48.9662

                     43                     44                     45
                      A                      A                      A
 Frequencies --    903.8752               914.3175               919.2506
 Red. masses --      1.1757                 1.5681                 2.5135
 Frc consts  --      0.5659                 0.7724                 1.2514
 IR Inten    --      2.6514                31.8729                10.4810

                     46                     47                     48
                      A                      A                      A
 Frequencies --    947.8129              1012.2900              1047.5647
 Red. masses --      2.5990                 1.3339                 6.0955
 Frc consts  --      1.3756                 0.8054                 3.9411
 IR Inten    --      9.7522                 0.6321                66.3240

                     49                     50                     51
                      A                      A                      A
 Frequencies --   1049.7600              1079.1402              1128.0498
 Red. masses --      4.2822                 2.6076                 3.7906
 Frc consts  --      2.7803                 1.7892                 2.8419
 IR Inten    --     26.8541                30.6516               195.8725

                     52                     53                     54
                      A                      A                      A
 Frequencies --   1149.1416              1164.9837              1167.8535
 Red. masses --      2.8694                 2.5632                 2.8016
 Frc consts  --      2.2325                 2.0496                 2.2513
 IR Inten    --     10.5271                95.3808                 5.8065

                     55                     56                     57
                      A                      A                      A
 Frequencies --   1173.8076              1182.5792              1201.7336
 Red. masses --     12.2678                 1.7240                 5.1094
 Frc consts  --      9.9589                 1.4205                 4.3475
 IR Inten    --     29.9789                 2.3899               531.6110

                     58                     59                     60
                      A                      A                      A
 Frequencies --   1211.4488              1225.4913              1242.7824
 Red. masses --      2.9352                 6.8654                 1.8069
 Frc consts  --      2.5380                 6.0749                 1.6443
 IR Inten    --    365.7321               332.8389               392.0485

                     61                     62                     63
                      A                      A                      A
 Frequencies --   1286.0627              1292.1734              1320.5225
 Red. masses --      1.3741                 2.1741                 1.9979
 Frc consts  --      1.3390                 2.1388                 2.0526
 IR Inten    --     62.5044               148.1306               128.6728

                     64                     65                     66
                      A                      A                      A
 Frequencies --   1330.3903              1343.2457              1348.4668
 Red. masses --      1.1764                 2.1984                 2.0023
 Frc consts  --      1.2268                 2.3370                 2.1452
 IR Inten    --     46.9447                39.7436               249.5078

                     67                     68                     69
                      A                      A                      A
 Frequencies --   1355.4836              1373.3866              1422.3210
 Red. masses --      2.7382                 4.3450                 1.5296
 Frc consts  --      2.9642                 4.8286                 1.8231
 IR Inten    --    184.2851               696.5035                 1.6478

                     70                     71                     72
                      A                      A                      A
 Frequencies --   1431.4533              1458.7801              1502.6321
 Red. masses --      1.3081                 3.3119                 1.0631
 Frc consts  --      1.5792                 4.1525                 1.4143
 IR Inten    --      2.9572                 3.3603                 9.5151

                     73                     74                     75
                      A                      A                      A
 Frequencies --   1517.8714              1519.7048              1533.1892
 Red. masses --      1.0416                 1.0653                 1.0933
 Frc consts  --      1.4139                 1.4496                 1.5142
 IR Inten    --     13.4141                 4.0578                 9.5786

                     76                     77                     78
                      A                      A                      A
 Frequencies --   1560.8257              1577.8232              1588.9709
 Red. masses --      1.8564                 3.3261                 2.3247
 Frc consts  --      2.6646                 4.8787                 3.4581
 IR Inten    --    644.4879                37.5119               792.0755

                     79                     80                     81
                      A                      A                      A
 Frequencies --   1665.8174              1692.8155              1801.3859
 Red. masses --      4.5950                 6.4598                 7.5665
 Frc consts  --      7.5126                10.9066                14.4664
 IR Inten    --     23.5534                90.9411               398.9281

                     82                     83                     84
                      A                      A                      A
 Frequencies --   3055.3556              3060.6626              3071.7786
 Red. masses --      1.0629                 1.0706                 1.0373
 Frc consts  --      5.8459                 5.9090                 5.7667
 IR Inten    --     17.4762                37.5532                35.0867

                     85                     86                     87
                      A                      A                      A
 Frequencies --   3097.9900              3130.1285              3141.5857
 Red. masses --      1.0966                 1.0987                 1.1032
 Frc consts  --      6.2012                 6.3421                 6.4151
 IR Inten    --     15.4347                 4.0929                57.5169

                     88                     89                     90
                      A                      A                      A
 Frequencies --   3147.9432              3226.2851              3247.3730
 Red. masses --      1.1022                 1.0915                 1.0913
 Frc consts  --      6.4354                 6.6938                 6.7807
 IR Inten    --     30.9849                 3.0991                 0.1250

                     91                     92                     93
                      A                      A                      A
 Frequencies --   3291.7295              3639.0167              3648.2250
 Red. masses --      1.0936                 1.0775                 1.0778
 Frc consts  --      6.9819                 8.4070                 8.4516
 IR Inten    --     11.6833                18.7321                79.2282

 - Thermochemistry -
 -------------------
 Temperature   298.150 Kelvin.  Pressure   1.00000 Atm.
 Atom     1 has atomic number  6 and mass  12.00000

 Molecular mass:   314.08538 amu.
 Principal axes and moments of inertia in atomic units:
                           1         2         3
     Eigenvalues --  2608.15329********************
           X            0.99999   0.00439   0.00114
           Y           -0.00440   0.99999   0.00036
           Z           -0.00114  -0.00036   1.00000
 This molecule is an asymmetric top.
 Rotational symmetry number  1.
 Warning -- assumption of classical behavior for rotation
           may cause significant error
 Rotational temperatures (Kelvin)      0.03321     0.00534     0.00477
 Rotational constants (GHZ):           0.69196     0.11136     0.09949
 Zero-point vibrational energy     634846.6 (Joules/Mol)
                                  151.73197 (Kcal/Mol)
 Warning -- explicit consideration of  31 degrees of freedom as
           vibrations may cause significant error
 Vibrational temperatures:     33.69    50.85    74.66    83.33    90.81
          (Kelvin)            110.42   134.41   147.81   191.51   207.54
                              238.12   263.84   288.56   334.56   351.96
                              357.72   369.37   454.17   461.04   490.29
                              496.11   502.72   609.74   614.65   679.42
                              695.10   730.78   776.11   781.17   828.39
                              875.02   897.52   945.19   957.71   973.20
                             1089.95  1096.10  1103.50  1120.82  1127.13
                             1178.08  1264.51  1300.47  1315.50  1322.59
                             1363.69  1456.46  1507.21  1510.37  1552.64
                             1623.01  1653.36  1676.15  1680.28  1688.85
                             1701.47  1729.02  1743.00  1763.21  1788.08
                             1850.36  1859.15  1899.93  1914.13  1932.63
                             1940.14  1950.24  1975.99  2046.40  2059.54
                             2098.86  2161.95  2183.88  2186.51  2205.91
                             2245.68  2270.13  2286.17  2396.74  2435.58
                             2591.79  4395.97  4403.61  4419.60  4457.31
                             4503.55  4520.04  4529.18  4641.90  4672.24
                             4736.06  5235.73  5248.98

 Zero-point correction=                           0.241800 (Hartree/Particle)
 Thermal correction to Energy=                    0.261788
 Thermal correction to Enthalpy=                  0.262733
 Thermal correction to Gibbs Free Energy=         0.191089
 Sum of electronic and zero-point Energies=          -1248.018782
 Sum of electronic and thermal Energies=             -1247.998794
 Sum of electronic and thermal Enthalpies=           -1247.997849
 Sum of electronic and thermal Free Energies=        -1248.069493

                     E (Thermal)             CV                S
                      KCal/Mol        Cal/Mol-Kelvin    Cal/Mol-Kelvin
 Total                  164.275             72.926            150.787
 Electronic               0.000              0.000              0.000
 Translational            0.889              2.981             43.130
 Rotational               0.889              2.981             34.993
 Vibrational            162.497             66.965             72.664
 Vibration     1          0.593              1.985              6.321
 Vibration     2          0.594              1.982              5.504
 Vibration     3          0.596              1.977              4.744
 Vibration     4          0.596              1.974              4.527
 Vibration     5          0.597              1.972              4.357
 Vibration     6          0.599              1.965              3.972
 Vibration     7          0.602              1.954              3.587
 Vibration     8          0.605              1.947              3.402
 Vibration     9          0.613              1.920              2.901
 Vibration    10          0.616              1.909              2.747
 Vibration    11          0.624              1.885              2.486
 Vibration    12          0.631              1.862              2.294
 Vibration    13          0.638              1.839              2.128
 Vibration    14          0.653              1.791              1.859
 Vibration    15          0.660              1.772              1.769
 Vibration    16          0.662              1.765              1.740
 Vibration    17          0.666              1.751              1.684
 Vibration    18          0.703              1.644              1.332
 Vibration    19          0.706              1.634              1.308
 Vibration    20          0.720              1.594              1.209
 Vibration    21          0.723              1.586              1.190
 Vibration    22          0.727              1.576              1.169
 Vibration    23          0.786              1.419              0.879
 Vibration    24          0.789              1.411              0.868
 Vibration    25          0.829              1.312              0.731
 Vibration    26          0.839              1.287              0.702
 Vibration    27          0.863              1.232              0.639
 Vibration    28          0.894              1.163              0.567
 Vibration    29          0.898              1.155              0.559
 Vibration    30          0.932              1.084              0.493
 Vibration    31          0.967              1.015              0.436

 Optimization completed.
    -- Stationary point found.
 Normal termination of Gaussian 09 at Thu Nov 14 10:28:03 2019.
