 Gaussian 09, Revision E.01,

 ----------------------------------------------------------------------
 # M062X/6-311+G* SCF=Tight INT(grid=ultrafine) OPT IOP(2/17=4) Empiric
 alDispersion=GD3 SCRF=(SMD,Solvent=h2o) maxdisk=2684354560
 ----------------------------------------------------------------------

 --------------------------------
 NM2.M062X_6-311pGd_opt_water_GD3
 --------------------------------
 Symbolic Z-matrix:
 Charge =  0 Multiplicity = 1

 SCF Done:  E(RM062X) =  -1248.26450987     A.U. after   15 cycles
 Optimization completed.
    -- Stationary point found.
 Normal termination of Gaussian 09 at Thu Nov 14 09:35:15 2019.
 Gaussian 09:  ES64L-G09RevE.01 30-Nov-2015

 ----------------------------------------------------------------------
 # M062X/6-311+G* SCF=Tight INT(grid=ultrafine) SCRF=(SMD,Solvent=h2o)
 EmpiricalDispersion=GD3 Freq=Noraman maxdisk=2684354560 geom=check gue
 ss=read IOP(2/17=4)
 ----------------------------------------------------------------------

 --------------------------------
 NM2.M062X_6-311pGd_opt_water_GD3
 --------------------------------
 Structure from the checkpoint file:  "NM2.M062X_6-311pGd_opt_water_GD3.chk"
 Charge =  0 Multiplicity = 1

                         Standard orientation:
 ---------------------------------------------------------------------
 Center     Atomic      Atomic             Coordinates (Angstroms)
 Number     Number       Type             X           Y           Z
 ---------------------------------------------------------------------
      1          6           0        0.491584   -0.965228   -0.122120
      2          7           0        1.871982   -1.114639   -0.200862
      3          6           0        2.840678   -0.144846    0.000208
      4          8           0        2.570790    1.030130    0.257106
      5          7           0        4.106599   -0.590561   -0.108779
      6          6           0        5.239221    0.299910    0.113565
      7          6           0        6.545545   -0.450146   -0.084840
      8          6           0        7.742841    0.463654    0.145275
      9          6           0       -0.159632    0.275196   -0.136537
     10          6           0       -1.544049    0.339159   -0.069210
     11          6           0       -2.315666   -0.827394    0.017661
     12          6           0       -1.660686   -2.055923    0.006177
     13          6           0       -0.281654   -2.128542   -0.061962
     14          1           0        2.196285   -2.069049   -0.302858
     15          1           0        4.288228   -1.568026   -0.293703
     16          1           0        5.189201    0.709052    1.126978
     17          1           0        5.178020    1.141348   -0.581987
     18          1           0        6.575392   -0.860298   -1.099005
     19          1           0        6.582884   -1.298669    0.605556
     20          1           0        7.731328    1.307845   -0.548960
     21          1           0        8.681434   -0.074613    0.001398
     22          1           0        7.740096    0.865874    1.161595
     23          1           0        0.415726    1.183536   -0.208796
     24          1           0        0.206329   -3.096934   -0.062278
     25          6           0       -3.817231   -0.832777    0.087542
     26          6           0       -2.155530    1.720105   -0.066784
     27          1           0       -2.232211   -2.973619    0.060704
     28          9           0       -4.305382    0.113558    0.906560
     29          9           0       -4.287239   -2.004000    0.541231
     30          9           0       -4.394850   -0.638768   -1.113107
     31          9           0       -1.307707    2.645693   -0.533332
     32          9           0       -2.505342    2.117344    1.169045
     33          9           0       -3.257438    1.796163   -0.828380
 ---------------------------------------------------------------------

 SCF Done:  E(RM062X) =  -1248.26450987     A.U. after    2 cycles

 The electronic state is 1-A.
 Alpha  occ. eigenvalues --  -25.28838 -25.28794 -25.28674 -25.28604 -25.28492
 Alpha  occ. eigenvalues --  -25.28264 -19.60230 -14.79346 -14.77256 -10.81608
 Alpha  occ. eigenvalues --  -10.81431 -10.68816 -10.61874 -10.59716 -10.58809
 Alpha  occ. eigenvalues --  -10.57110 -10.56705 -10.56678 -10.56256 -10.53072
 Alpha  occ. eigenvalues --  -10.51757  -1.48398  -1.47872  -1.38954  -1.38581
 Alpha  occ. eigenvalues --   -1.38446  -1.38195  -1.19073  -1.07236  -1.03823
 Alpha  occ. eigenvalues --   -0.99736  -0.90727  -0.90093  -0.87780  -0.83263
 Alpha  occ. eigenvalues --   -0.81613  -0.78233  -0.75014  -0.74295  -0.71112
 Alpha  occ. eigenvalues --   -0.70737  -0.70471  -0.69969  -0.69362  -0.68786
 Alpha  occ. eigenvalues --   -0.67815  -0.65599  -0.63539  -0.59993  -0.59155
 Alpha  occ. eigenvalues --   -0.59082  -0.58330  -0.58204  -0.56379  -0.56019
 Alpha  occ. eigenvalues --   -0.55720  -0.54820  -0.54223  -0.53788  -0.53250
 Alpha  occ. eigenvalues --   -0.52834  -0.52657  -0.52350  -0.52130  -0.51489
 Alpha  occ. eigenvalues --   -0.50515  -0.49303  -0.47959  -0.46818  -0.45582
 Alpha  occ. eigenvalues --   -0.45453  -0.43565  -0.42141  -0.40213  -0.40015
 Alpha  occ. eigenvalues --   -0.39114  -0.36627  -0.33938  -0.33319  -0.28936
 Alpha virt. eigenvalues --   -0.02037  -0.00335   0.01177   0.02335   0.02668
 Alpha virt. eigenvalues --    0.03211   0.03609   0.03826   0.04509   0.04753
 Alpha virt. eigenvalues --    0.05280   0.05513   0.06440   0.06466   0.06851

 Mulliken charges:
               1
     1  C   -0.977531
     2  N   -0.356178
     3  C    0.188874
     4  O   -0.516082
     5  N   -0.395552
     6  C   -0.505134
     7  C   -0.146703
     8  C   -1.053230
     9  C    0.172864
    10  C   -0.582506
    11  C   -0.630845
    12  C   -0.277189
    13  C   -0.005482
    14  H    0.442457
    15  H    0.452420
    16  H    0.279540
    17  H    0.275840
    18  H    0.268196
    19  H    0.267287
    20  H    0.269590
    21  H    0.280464
    22  H    0.269991
    23  H    0.338023
    24  H    0.304925
    25  C    0.851352
    26  C    0.996176
    27  H    0.325269
    28  F   -0.096594
    29  F   -0.125392
    30  F   -0.060566
    31  F   -0.117587
    32  F   -0.050074
    33  F   -0.086623
 Sum of Mulliken charges =   0.00000

 Dipole moment (field-independent basis, Debye):
    X=              9.7065    Y=             -9.3861    Z=             -1.2266  Tot=             13.5580
 Quadrupole moment (field-independent basis, Debye-Ang):
   XX=           -109.6453   YY=           -111.7191   ZZ=           -124.5788
   XY=            -13.2737   XZ=             -2.9004   YZ=              0.0990

  Exact polarizability: 287.096   3.878 226.297  -3.128   3.195 150.454
 Approx polarizability: 228.794  -0.222 200.908  -3.322   2.494 138.022

                      1                      2                      3
                      A                      A                      A
 Frequencies --     13.7748                31.2187                43.2579
 Red. masses --      5.5162                 6.2031                 4.3721
 Frc consts  --      0.0006                 0.0036                 0.0048
 IR Inten    --      1.0523                27.6089                 0.0875

                      4                      5                      6
                      A                      A                      A
 Frequencies --     54.8012                61.0370                68.9957
 Red. masses --      4.2891                 6.5208                 2.2427
 Frc consts  --      0.0076                 0.0143                 0.0063
 IR Inten    --      5.5817                 3.1196                15.1583

                      7                      8                      9
                      A                      A                      A
 Frequencies --     90.2269                91.1509               124.5642
 Red. masses --      6.2150                14.9614                 6.1451
 Frc consts  --      0.0298                 0.0732                 0.0562
 IR Inten    --      0.0403                 0.2057                 1.6793

                     10                     11                     12
                      A                      A                      A
 Frequencies --    141.0866               146.7468               170.2080
 Red. masses --      6.0366                 3.0591                14.3233
 Frc consts  --      0.0708                 0.0388                 0.2445
 IR Inten    --      1.8580                16.7482                 0.5865

                     13                     14                     15
                      A                      A                      A
 Frequencies --    205.4022               227.6587               238.8552
 Red. masses --      8.0979                 6.9377                 7.5281
 Frc consts  --      0.2013                 0.2119                 0.2531
 IR Inten    --      0.4611                 6.3227                 9.4130

                     16                     17                     18
                      A                      A                      A
 Frequencies --    242.1314               264.4425               316.2407
 Red. masses --      1.1341                 7.6849                 6.5208
 Frc consts  --      0.0392                 0.3166                 0.3842
 IR Inten    --      0.5605                 1.9535                 2.0670

                     19                     20                     21
                      A                      A                      A
 Frequencies --    339.9501               345.0173               349.8057
 Red. masses --      9.3492                 2.0611                 1.7134
 Frc consts  --      0.6366                 0.1446                 0.1235
 IR Inten    --      3.0572                51.7321                42.3627

                     22                     23                     24
                      A                      A                      A
 Frequencies --    386.2825               394.8603               415.7152
 Red. masses --      7.9792                 5.7602                 4.8987
 Frc consts  --      0.7015                 0.5291                 0.4988
 IR Inten    --      5.5873                34.4233                 4.5350

                     25                     26                     27
                      A                      A                      A
 Frequencies --    464.9007               477.1555               503.1139
 Red. masses --      7.4797                 6.1054                 5.4061
 Frc consts  --      0.9525                 0.8190                 0.8062
 IR Inten    --      9.9019                 2.7188                23.2551

                     28                     29                     30
                      A                      A                      A
 Frequencies --    525.2575               539.7278               571.8822
 Red. masses --      1.2100                 8.9496                14.6133
 Frc consts  --      0.1967                 1.5360                 2.8159
 IR Inten    --    258.9725                 1.3115                 1.0452

                     31                     32                     33
                      A                      A                      A
 Frequencies --    603.1331               619.9131               655.1098
 Red. masses --      5.4090                 8.5521                 6.2325
 Frc consts  --      1.1593                 1.9363                 1.5759
 IR Inten    --     28.4157                 1.5610                 4.4988

                     34                     35                     36
                      A                      A                      A
 Frequencies --    660.3384               679.8715               756.9825
 Red. masses --      6.9613                 9.0742                 4.3647
 Frc consts  --      1.7884                 2.4712                 1.4736
 IR Inten    --     11.5718                23.8777                 2.2481

                     37                     38                     39
                      A                      A                      A
 Frequencies --    759.8761               773.0591               774.8542
 Red. masses --      1.1800                 8.0090                11.2258
 Frc consts  --      0.4014                 2.8200                 3.9711
 IR Inten    --     17.3914                16.7456                 8.6292

                     40                     41                     42
                      A                      A                      A
 Frequencies --    779.9335               802.8952               865.3160
 Red. masses --      5.7438                 7.5563                 1.4706
 Frc consts  --      2.0586                 2.8700                 0.6488
 IR Inten    --     14.7469                 8.1712                87.2515

                     43                     44                     45
                      A                      A                      A
 Frequencies --    908.8953               911.4571               927.6812
 Red. masses --      1.1550                 1.5410                 1.8551
 Frc consts  --      0.5621                 0.7543                 0.9406
 IR Inten    --      1.4380                57.8271                 1.7637

                     46                     47                     48
                      A                      A                      A
 Frequencies --    954.4672              1000.8909              1045.0857
 Red. masses --      4.6569                 1.3400                 6.4414
 Frc consts  --      2.4996                 0.7909                 4.1451
 IR Inten    --     31.2037                 3.9285                90.7611

                     49                     50                     51
                      A                      A                      A
 Frequencies --   1049.1049              1080.7213              1122.2461
 Red. masses --      4.3061                 2.6568                 3.8062
 Frc consts  --      2.7924                 1.8282                 2.8243
 IR Inten    --     13.1996                19.4535               280.4157

                     52                     53                     54
                      A                      A                      A
 Frequencies --   1141.0876              1144.9055              1152.7940
 Red. masses --     10.3995                 2.5790                 8.0355
 Frc consts  --      7.9781                 1.9918                 6.2917
 IR Inten    --    126.3535                23.8447               563.9361

                     55                     56                     57
                      A                      A                      A
 Frequencies --   1158.2388              1172.6172              1182.2691
 Red. masses --      6.9555                 3.3458                 1.6192
 Frc consts  --      5.4976                 2.7106                 1.3335
 IR Inten    --    519.9020                 2.5625                 0.4079

                     58                     59                     60
                      A                      A                      A
 Frequencies --   1197.2139              1208.7940              1264.9305
 Red. masses --      9.0324                 1.5332                 1.8006
 Frc consts  --      7.6277                 1.3200                 1.6975
 IR Inten    --    317.8930               394.6991               572.0892

                     61                     62                     63
                      A                      A                      A
 Frequencies --   1284.2911              1286.1447              1313.3342
 Red. masses --      2.1203                 1.2973                 2.6050
 Frc consts  --      2.0605                 1.2644                 2.6473
 IR Inten    --     77.3251                18.0478               347.8194

                     64                     65                     66
                      A                      A                      A
 Frequencies --   1320.9380              1336.4977              1344.7381
 Red. masses --      2.2678                 1.0752                 2.7591
 Frc consts  --      2.3314                 1.1316                 2.9396
 IR Inten    --    140.1415                 6.8427               804.0167

                     67                     68                     69
                      A                      A                      A
 Frequencies --   1351.0616              1375.3120              1417.1432
 Red. masses --      1.7270                 4.4349                 1.2651
 Frc consts  --      1.8574                 4.9424                 1.4970
 IR Inten    --     77.2635               448.1836                 0.9325

                     70                     71                     72
                      A                      A                      A
 Frequencies --   1426.8618              1470.5792              1486.3223
 Red. masses --      1.6403                 4.6449                 1.0572
 Frc consts  --      1.9676                 5.9184                 1.3761
 IR Inten    --      6.6682               302.4880                 8.8792

                     73                     74                     75
                      A                      A                      A
 Frequencies --   1500.7083              1509.6309              1529.0636
 Red. masses --      1.0381                 1.0823                 1.0891
 Frc consts  --      1.3774                 1.4533                 1.5002
 IR Inten    --     13.9656                 9.2267                38.5311

                     76                     77                     78
                      A                      A                      A
 Frequencies --   1549.7722              1574.0989              1587.0721
 Red. masses --      1.9235                 2.7573                 2.6944
 Frc consts  --      2.7220                 4.0253                 3.9986
 IR Inten    --    341.5786               288.1586               912.4971

                     79                     80                     81
                      A                      A                      A
 Frequencies --   1657.9146              1687.0722              1704.5840
 Red. masses --      7.7739                 4.3640                 4.5591
 Frc consts  --     12.5897                 7.3182                 7.8049
 IR Inten    --    193.5858                18.6034               852.9990

                     82                     83                     84
                      A                      A                      A
 Frequencies --   3067.6927              3068.3418              3076.6860
 Red. masses --      1.0603                 1.0370                 1.0586
 Frc consts  --      5.8792                 5.7523                 5.9041
 IR Inten    --      9.9487                26.9422                93.4703

                     85                     86                     87
                      A                      A                      A
 Frequencies --   3098.9821              3119.5738              3137.7769
 Red. masses --      1.1035                 1.1071                 1.1044
 Frc consts  --      6.2439                 6.3479                 6.4064
 IR Inten    --      0.7089                34.1494                99.9695

                     88                     89                     90
                      A                      A                      A
 Frequencies --   3145.3840              3224.8397              3249.9487
 Red. masses --      1.1025                 1.0920                 1.0943
 Frc consts  --      6.4264                 6.6911                 6.8099
 IR Inten    --     46.1154                 2.3175                 0.2580

                     91                     92                     93
                      A                      A                      A
 Frequencies --   3300.6237              3597.3557              3644.6700
 Red. masses --      1.0915                 1.0784                 1.0792
 Frc consts  --      7.0062                 8.2221                 8.4461
 IR Inten    --     25.3231               126.3401               152.0720

 - Thermochemistry -
 -------------------
 Temperature   298.150 Kelvin.  Pressure   1.00000 Atm.
 Atom     1 has atomic number  6 and mass  12.00000

 Molecular mass:   314.08538 amu.
 Principal axes and moments of inertia in atomic units:
                           1         2         3
     Eigenvalues --  2536.36312********************
           X            1.00000   0.00223   0.00074
           Y           -0.00224   0.99999   0.00413
           Z           -0.00073  -0.00413   0.99999
 This molecule is an asymmetric top.
 Rotational symmetry number  1.
 Warning -- assumption of classical behavior for rotation
           may cause significant error
 Rotational temperatures (Kelvin)      0.03415     0.00567     0.00506
 Rotational constants (GHZ):           0.71155     0.11807     0.10537
 Zero-point vibrational energy     631898.4 (Joules/Mol)
                                  151.02735 (Kcal/Mol)
 Warning -- explicit consideration of  32 degrees of freedom as
           vibrations may cause significant error
 Vibrational temperatures:     19.82    44.92    62.24    78.85    87.82
          (Kelvin)             99.27   129.82   131.15   179.22   202.99
                              211.14   244.89   295.53   327.55   343.66
                              348.37   380.47   455.00   489.11   496.40
                              503.29   555.77   568.12   598.12   668.89
                              686.52   723.87   755.73   776.55   822.81
                              867.77   891.92   942.56   950.08   978.18
                             1089.13  1093.29  1112.26  1114.84  1122.15
                             1155.19  1245.00  1307.70  1311.38  1334.72
                             1373.26  1440.06  1503.64  1509.43  1554.91
                             1614.66  1641.77  1647.26  1658.61  1666.45
                             1687.13  1701.02  1722.52  1739.18  1819.95
                             1847.81  1850.47  1889.59  1900.53  1922.92
                             1934.78  1943.87  1978.76  2038.95  2052.93
                             2115.83  2138.48  2159.18  2172.02  2199.98
                             2229.77  2264.77  2283.44  2385.37  2427.32
                             2452.51  4413.72  4414.65  4426.66  4458.74
                             4488.37  4514.56  4525.50  4639.82  4675.95
                             4748.86  5175.79  5243.86

 Zero-point correction=                           0.240677 (Hartree/Particle)
 Thermal correction to Energy=                    0.260869
 Thermal correction to Enthalpy=                  0.261813
 Thermal correction to Gibbs Free Energy=         0.188847
 Sum of electronic and zero-point Energies=          -1248.023832
 Sum of electronic and thermal Energies=             -1248.003641
 Sum of electronic and thermal Enthalpies=           -1248.002697
 Sum of electronic and thermal Free Energies=        -1248.075663

                     E (Thermal)             CV                S
                      KCal/Mol        Cal/Mol-Kelvin    Cal/Mol-Kelvin
 Total                  163.698             73.236            153.569
 Electronic               0.000              0.000              0.000
 Translational            0.889              2.981             43.130
 Rotational               0.889              2.981             34.850
 Vibrational            161.920             67.274             75.589
 Vibration     1          0.593              1.986              7.375
 Vibration     2          0.594              1.983              5.750
 Vibration     3          0.595              1.980              5.104
 Vibration     4          0.596              1.976              4.636
 Vibration     5          0.597              1.973              4.423
 Vibration     6          0.598              1.969              4.182
 Vibration     7          0.602              1.956              3.655
 Vibration     8          0.602              1.955              3.635
 Vibration     9          0.610              1.928              3.028
 Vibration    10          0.615              1.912              2.789
 Vibration    11          0.617              1.906              2.714
 Vibration    12          0.625              1.879              2.433
 Vibration    13          0.640              1.832              2.084
 Vibration    14          0.651              1.799              1.897
 Vibration    15          0.657              1.781              1.811
 Vibration    16          0.658              1.776              1.787
 Vibration    17          0.671              1.738              1.632
 Vibration    18          0.703              1.643              1.329
 Vibration    19          0.720              1.596              1.212
 Vibration    20          0.723              1.585              1.189
 Vibration    21          0.727              1.576              1.167
 Vibration    22          0.755              1.499              1.014
 Vibration    23          0.762              1.481              0.982
 Vibration    24          0.779              1.436              0.907
 Vibration    25          0.822              1.328              0.752
 Vibration    26          0.834              1.301              0.718
 Vibration    27          0.858              1.243              0.650
 Vibration    28          0.880              1.194              0.598
 Vibration    29          0.895              1.162              0.566
 Vibration    30          0.928              1.092              0.501
 Vibration    31          0.962              1.025              0.444
 Vibration    32          0.980              0.990              0.417

 Normal termination of Gaussian 09 at Thu Nov 14 10:27:19 2019.
