 Gaussian 09, Revision E.01,
 Gaussian 09:  ES64L-G09RevE.01 30-Nov-2015

 -------------------------------------------------------------
 # MP2/Gen 5D SCF=Tight INT(grid=ultrafine) maxdisk=3489660928
 -------------------------------------------------------------

 -------------------
 29CA.MP2_GTMP2LARGE
 -------------------
 Symbolic Z-matrix:
 Charge =  0 Multiplicity = 1

                         Standard orientation:
 ---------------------------------------------------------------------
 Center     Atomic      Atomic             Coordinates (Angstroms)
 Number     Number       Type             X           Y           Z
 ---------------------------------------------------------------------
      1          6           0        0.081672   -1.039998    0.000240
      2          7           0        1.480199   -1.115770    0.000443
      3          6           0        2.373606   -0.074637    0.000150
      4          8           0        2.104673    1.098250   -0.000149
      5          8           0        3.621759   -0.572620    0.000261
      6          6           0        4.673746    0.405064   -0.000142
      7          6           0        5.991907   -0.338386    0.000053
      8          6           0        7.167030    0.635555   -0.000432
      9          6           0       -0.621505    0.166159    0.000203
     10          6           0       -2.012500    0.158090   -0.000003
     11          6           0       -2.714224   -1.045823   -0.000136
     12          6           0       -2.014649   -2.244863   -0.000079
     13          6           0       -0.630566   -2.241469    0.000103
     14          1           0        1.893404   -2.036423    0.000570
     15          1           0        4.565565    1.039524    0.882896
     16          1           0        4.565472    1.038890   -0.883626
     17          1           0        6.034525   -0.987733   -0.878616
     18          1           0        6.034655   -0.987026    0.879236
     19          1           0        7.148450    1.279456   -0.883043
     20          1           0        8.118036    0.101605   -0.000292
     21          1           0        7.148593    1.280171    0.881662
     22          1           0       -0.088629    1.104500    0.000309
     23          6           0       -2.744721    1.478390    0.000081
     24         17           0       -4.450734   -1.098216   -0.000337
     25          1           0       -2.560774   -3.179810   -0.000183
     26          1           0       -0.097041   -3.186671    0.000132
     27          9           0       -1.898356    2.514392    0.000150
     28          9           0       -3.526963    1.612875   -1.078921
     29          9           0       -3.527059    1.612741    1.079045
 ---------------------------------------------------------------------

 SCF Done:  E(RHF) =  -1385.31317691     A.U. after   16 cycles
 E2 =    -0.3337488089D+01 EUMP2 =    -0.13886506649982D+04

 The electronic state is 1-A.
 Alpha  occ. eigenvalues -- -104.85046 -26.33542 -26.33130 -26.33128 -20.61567
 Alpha  occ. eigenvalues --  -20.54847 -15.62212 -11.50793 -11.42297 -11.31711
 Alpha  occ. eigenvalues --  -11.31534 -11.29569 -11.28204 -11.26788 -11.26596
 Alpha  occ. eigenvalues --  -11.25892 -11.23675 -11.22786 -10.57497  -8.04276
 Alpha  occ. eigenvalues --   -8.04102  -8.04095  -1.72778  -1.63096  -1.62792
 Alpha  occ. eigenvalues --   -1.48802  -1.38038  -1.28581  -1.20855  -1.13080
 Alpha  occ. eigenvalues --   -1.08510  -1.07773  -1.02148  -0.97158  -0.95190
 Alpha  occ. eigenvalues --   -0.88827  -0.87036  -0.83639  -0.82097  -0.81890
 Alpha  occ. eigenvalues --   -0.81364  -0.79371  -0.76191  -0.71878  -0.70861
 Alpha  occ. eigenvalues --   -0.70663  -0.70636  -0.69009  -0.67414  -0.65809
 Alpha  occ. eigenvalues --   -0.65623  -0.64959  -0.64287  -0.64123  -0.62725
 Alpha  occ. eigenvalues --   -0.61569  -0.59518  -0.58771  -0.56305  -0.55829
 Alpha  occ. eigenvalues --   -0.54802  -0.54124  -0.52789  -0.51561  -0.50073
 Alpha  occ. eigenvalues --   -0.49716  -0.47684  -0.47357  -0.46104  -0.45151
 Alpha  occ. eigenvalues --   -0.37744  -0.32610
 Alpha virt. eigenvalues --    0.02890   0.03854   0.04932   0.05526   0.05654
 Alpha virt. eigenvalues --    0.06460   0.07678   0.07817   0.08426   0.08568
 Alpha virt. eigenvalues --    0.08694   0.09602   0.10091   0.10173   0.10623

 Mulliken charges:
               1
     1  C   -0.116956
     2  N   -0.438178
     3  C    0.447181
     4  O   -0.454782
     5  O   -0.215673
     6  C    0.092969
     7  C    0.266541
     8  C   -0.451106
     9  C   -0.189819
    10  C   -0.019576
    11  C    0.033179
    12  C   -0.232800
    13  C   -0.238920
    14  H    0.224283
    15  H    0.102990
    16  H    0.102996
    17  H    0.047540
    18  H    0.047552
    19  H    0.058467
    20  H    0.089309
    21  H    0.058465
    22  H    0.265111
    23  C    1.267564
    24  Cl  -0.244976
    25  H    0.193355
    26  H    0.117969
    27  F   -0.316610
    28  F   -0.248044
    29  F   -0.248031
 Sum of Mulliken charges =  -0.00000

 Dipole moment (field-independent basis, Debye):
    X=              5.2134    Y=             -4.4344    Z=              0.0003  Tot=              6.8442
 Quadrupole moment (field-independent basis, Debye-Ang):
   XX=           -104.7448   YY=           -107.1008   ZZ=           -112.8916
   XY=              2.4012   XZ=             -0.0002   YZ=              0.0005

 Normal termination of Gaussian 09 at Mon Dec  9 11:23:41 2019.
