 Q-Chem 5.0, Q-Chem, Inc., Pleasanton, CA (2017)
 Q-Chem 5.0.0 for Intel X86 EM64T Linux

User input:
--------------------------------------------------------------
$molecule
  0 1
    C     -6.1884726944    1.2708506961    0.0098388012
    N     -4.8985843131    0.7251385156    0.0120111908
    C     -3.7052271321    1.4006634757   -0.0291994526
    O     -3.5605996156    2.5943976032   -0.0747153700
    O     -2.6999251114    0.5090928486   -0.0106726713
    C     -1.3789049779    1.0711693764   -0.0496462840
    C     -0.3909611660   -0.0748866358   -0.0215811225
    C      1.0446217515    0.4418911681   -0.0605761812
    C     -6.4410499935    2.6431988128   -0.0364035918
    C     -7.7522748417    3.1075462676   -0.0353376714
    C     -8.8205077866    2.2139602000    0.0116162297
    C     -8.5689061367    0.8495246288    0.0576045416
    C     -7.2657680572    0.3831264348    0.0567015602
    H     -4.8219904553   -0.2804542175    0.0474905383
    H     -1.2534154948    1.7362071636    0.8082452829
    H     -1.2780638137    1.6717300232   -0.9569276035
    H     -0.5831104770   -0.7315151266   -0.8744850897
    H     -0.5585229223   -0.6672951028    0.8820217353
    H      1.2332644836    1.0215215271   -0.9674378891
    H      1.7582087215   -0.3826702318   -0.0404230569
    H      1.2579608751    1.0859927514    0.7959158978
    H     -5.6216794759    3.3444373264   -0.0729870546
    C     -7.9934773873    4.5970466040   -0.0858574637
    Cl   -10.4717797520    2.7538704659    0.0146399129
    H     -9.3995886316    0.1559723915    0.0940690466
    H     -7.0843149257   -0.6863665110    0.0929510234
    F     -6.8461059374    5.2837220280   -0.1264749732
    F     -8.6985990842    4.9498230623   -1.1687166499
    F     -8.6689956484    5.0278044546    0.9876363646

$end

$rem

    JOBTYPE               sp
    METHOD                CCSD(T)
    BASIS                 6-31+G*
    CC_BACKEND            XM

    MEM_TOTAL             60000
$end
--------------------------------------------------------------

             Standard Nuclear Orientation (Angstroms)
    I     Atom           X                Y                Z
 ----------------------------------------------------------------
    1      C      -0.0816717347    -1.0399984675    -0.0002398815
    2      N      -1.4801985306    -1.1157698301    -0.0004433562
    3      C      -2.3736057486    -0.0746372223    -0.0001500892
    4      O      -2.1046731599     1.0982503074     0.0001494869
    5      O      -3.6217589648    -0.5726202685    -0.0002606112
    6      C      -4.6737462243     0.4050636283     0.0001424686
    7      C      -5.9919066453    -0.3383864899    -0.0000528348
    8      C      -7.1670303926     0.6355550740     0.0004317379
    9      C       0.6215052703     0.1661586958    -0.0002025532
   10      C       2.0124995715     0.1580896649     0.0000028441
   11      C       2.7142240715    -1.0458227331     0.0001356430
   12      C       2.0146492555    -2.2448631064     0.0000793769
   13      C       0.6305663841    -2.2414694927    -0.0001031950
   14      H      -1.8934044891    -2.0364233849    -0.0005695426
   15      H      -4.5655653526     1.0395242818    -0.8828962550
   16      H      -4.5654717513     1.0388896899     0.8836256805
   17      H      -6.0345250960    -0.9877334463     0.8786164475
   18      H      -6.0346547460    -0.9870256811    -0.8792357840
   19      H      -7.1484504679     1.2794556508     0.8830428778
   20      H      -8.1180356585     0.1016047214     0.0002919536
   21      H      -7.1485925515     1.2801713949    -0.8816617705
   22      H       0.0886288015     1.1045000545    -0.0003092496
   23      C       2.7447212446     1.4783902307    -0.0000809376
   24      Cl      4.4507338500    -1.0982163410     0.0003372235
   25      H       2.5607744596    -3.1798096418     0.0001827489
   26      H       0.0970412687    -3.1866707274    -0.0001321309
   27      F       1.8983556483     2.5143918893    -0.0001500335
   28      F       3.5269625762     1.6128747348     1.0789205784
   29      F       3.5270591682     1.6127405643    -1.0790450740
 ----------------------------------------------------------------

   16   -1384.9977832042      4.47E-09 Convergence criterion met
 Total energy in the final basis set = -1384.9977832042
 CCSD total energy           = -1387.66698798
 CCSD(T) total energy       = -1387.76660223

                    Orbital Energies (a.u.)
 --------------------------------------------------------------

 Alpha MOs
 -- Occupied --
******* -26.352 -26.347 -26.347 -20.631 -20.566 -15.635 -11.520
-11.435 -11.325 -11.323 -11.302 -11.290 -11.276 -11.274 -11.267
-11.242 -11.233 -10.572  -8.041  -8.038  -8.038  -1.734  -1.636
 -1.633  -1.494  -1.386  -1.290  -1.213  -1.135  -1.089  -1.082
 -1.025  -0.975  -0.955  -0.892  -0.874  -0.839  -0.824  -0.821
 -0.817  -0.797  -0.765  -0.722  -0.710  -0.708  -0.708  -0.693
 -0.676  -0.659  -0.658  -0.652  -0.643  -0.643  -0.630  -0.618
 -0.598  -0.589  -0.565  -0.560  -0.551  -0.544  -0.530  -0.517
 -0.503  -0.498  -0.478  -0.475  -0.463  -0.452  -0.379  -0.327

          Ground-State Mulliken Net Atomic Charges

     Atom                 Charge (a.u.)
  ----------------------------------------
      1 C                    -0.211021
      2 N                    -0.941965
      3 C                     0.798377
      4 O                    -0.590224
      5 O                    -0.470074
      6 C                     0.126120
      7 C                    -0.285320
      8 C                    -0.687447
      9 C                     0.303740
     10 C                    -0.800118
     11 C                     0.442195
     12 C                    -0.470724
     13 C                    -0.842477
     14 H                     0.499828
     15 H                     0.212309
     16 H                     0.212303
     17 H                     0.203786
     18 H                     0.203788
     19 H                     0.196646
     20 H                     0.203908
     21 H                     0.196646
     22 H                     0.350744
     23 C                     1.679520
     24 Cl                    0.320728
     25 H                     0.267293
     26 H                     0.240554
     27 F                    -0.436535
     28 F                    -0.361284
     29 F                    -0.361297
  ----------------------------------------
  Sum of atomic charges =     0.000000

                    Cartesian Multipole Moments
 -----------------------------------------------------------------
    Charge (ESU x 10^10)
                 0.0000
    Dipole Moment (Debye)
         X      -5.2940      Y      -4.4882      Z      -0.0003
       Tot       6.9405
    Quadrupole Moments (Debye-Ang)
        XX    -105.5956     XY      -2.6481     YY    -107.5659
        XZ      -0.0003     YZ      -0.0006     ZZ    -113.7443

 Total job time:  117070.58s(wall), 403051.54s(cpu)
        *  Thank you very much for using Q-Chem.  Have a nice day.  *
