 Gaussian 16, Revision C.01,

 ----------------------------------------------------------------------
 # M062X/6-311+G* SCF=Tight INT(grid=ultrafine) OPT=CalcAll IOP(2/17=4)
  Symmetry=None EmpiricalDispersion=GD3 SCRF=(SMD,Solvent=n-Pentadecane
 )
 ----------------------------------------------------------------------

 ------------------------------------------
 29CA_c2.M062X_6-311pGd_opt_Pentadecane_GD3
 ------------------------------------------
 Symbolic Z-matrix:
 Charge =  0 Multiplicity = 1

 SCF Done:  E(RM062X) =  -1390.68265446     A.U. after   15 cycles
 SCF Done:  E(RM062X) =  -1390.68310910     A.U. after   14 cycles
 SCF Done:  E(RM062X) =  -1390.68314040     A.U. after   12 cycles
 SCF Done:  E(RM062X) =  -1390.68314101     A.U. after   10 cycles
 SCF Done:  E(RM062X) =  -1390.68314102     A.U. after    8 cycles
 Optimization completed.
    -- Stationary point found.
 Normal termination of Gaussian 16 at Sat Sep  5 09:58:09 2020.
 Gaussian 16:  ES64L-G16RevC.01  3-Jul-2019

 ----------------------------------------------------------------------
 # M062X/6-311+G* SCF=Tight INT(grid=ultrafine) Symmetry=None Empirical
 Dispersion=GD3 SCRF=(SMD,Solvent=n-Pentadecane) Freq=Noraman geom=chec
 k guess=read IOP(2/17=4)
 ----------------------------------------------------------------------

 ------------------------------------------
 29CA_c2.M062X_6-311pGd_opt_Pentadecane_GD3
 ------------------------------------------
 Structure from the checkpoint file:  "29CA_c2.M062X_6-311pGd_opt_Pentadecane_GD3.chk"
 Charge =  0 Multiplicity = 1

                          Input orientation:
 ---------------------------------------------------------------------
 Center     Atomic      Atomic             Coordinates (Angstroms)
 Number     Number       Type             X           Y           Z
 ---------------------------------------------------------------------
      1          6           0       -6.182956    1.471801   -0.081290
      2          7           0       -4.920661    0.869088   -0.051290
      3          6           0       -3.699462    1.490447   -0.038257
      4          8           0       -3.503300    2.680047   -0.059882
      5          8           0       -2.736359    0.559130    0.002790
      6          6           0       -1.386776    1.055715    0.022850
      7          6           0       -0.458549   -0.138039    0.069919
      8          6           0        0.999334    0.309776    0.092246
      9          6           0       -7.292436    0.621990   -0.079273
     10          6           0       -8.582002    1.130764   -0.107016
     11          6           0       -8.777779    2.511950   -0.136707
     12          6           0       -7.680194    3.358206   -0.139241
     13          6           0       -6.386716    2.853009   -0.112158
     14          1           0       -4.893602   -0.140584   -0.026952
     15          1           0       -1.261050    1.699099    0.897077
     16          1           0       -1.220802    1.660981   -0.871650
     17          1           0       -0.648036   -0.772269   -0.800486
     18          1           0       -0.687178   -0.733191    0.958348
     19          1           0        1.250370    0.891841   -0.798216
     20          1           0        1.671284   -0.549319    0.125809
     21          1           0        1.211585    0.930457    0.966583
     22          1           0       -7.145369   -0.451693   -0.055891
     23          6           0       -9.747850    0.176813   -0.103939
     24         17           0      -10.374560    3.204371   -0.169578
     25          1           0       -7.835857    4.429924   -0.162480
     26          1           0       -5.545606    3.529308   -0.114657
     27          9           0       -9.343269   -1.101804   -0.075932
     28          9           0      -10.541057    0.353165    0.961572
     29          9           0      -10.514978    0.314096   -1.193979
 ---------------------------------------------------------------------

 SCF Done:  E(RM062X) =  -1390.68314102     A.U. after    2 cycles

 Alpha  occ. eigenvalues -- -102.68667 -25.28657 -25.28120 -25.28119 -19.67703
 Alpha  occ. eigenvalues --  -19.61776 -14.80504 -10.81316 -10.71365 -10.62549
 Alpha  occ. eigenvalues --  -10.62030 -10.59831 -10.59473 -10.57795 -10.57159
 Alpha  occ. eigenvalues --  -10.56544 -10.54098 -10.53013  -9.82941  -7.55462
 Alpha  occ. eigenvalues --   -7.54770  -7.54761  -1.47858  -1.38449  -1.38102
 Alpha  occ. eigenvalues --   -1.25820  -1.15879  -1.08159  -1.01902  -0.95505
 Alpha  occ. eigenvalues --   -0.90941  -0.90030  -0.85869  -0.81947  -0.79739
 Alpha  occ. eigenvalues --   -0.75072  -0.73161  -0.71137  -0.70121  -0.69793
 Alpha  occ. eigenvalues --   -0.68247  -0.65657  -0.64994  -0.60034  -0.59666
 Alpha  occ. eigenvalues --   -0.58461  -0.58337  -0.58010  -0.56372  -0.55349
 Alpha  occ. eigenvalues --   -0.54284  -0.53981  -0.53364  -0.52162  -0.51950
 Alpha  occ. eigenvalues --   -0.51364  -0.49714  -0.49595  -0.47443  -0.46628
 Alpha  occ. eigenvalues --   -0.45718  -0.44699  -0.43686  -0.43683  -0.41013
 Alpha  occ. eigenvalues --   -0.40842  -0.38952  -0.38541  -0.37991  -0.37446
 Alpha  occ. eigenvalues --   -0.34205  -0.28883
 Alpha virt. eigenvalues --   -0.01512  -0.00528   0.00458   0.01948   0.02055
 Alpha virt. eigenvalues --    0.02878   0.03421   0.03603   0.03734   0.04976
 Alpha virt. eigenvalues --    0.05134   0.05352   0.06461   0.06591   0.06673

 Mulliken charges:
               1
     1  C   -0.340508
     2  N   -0.500385
     3  C    0.001037
     4  O   -0.312772
     5  O   -0.062769
     6  C   -0.357206
     7  C   -0.135497
     8  C   -1.049999
     9  C   -0.721307
    10  C   -1.103450
    11  C    0.719463
    12  C   -0.180304
    13  C    0.048282
    14  H    0.431499
    15  H    0.274302
    16  H    0.274072
    17  H    0.262955
    18  H    0.263099
    19  H    0.264433
    20  H    0.278468
    21  H    0.264490
    22  H    0.287297
    23  C    0.551155
    24  Cl   0.456431
    25  H    0.295222
    26  H    0.312867
    27  F   -0.145309
    28  F   -0.037640
    29  F   -0.037927
 Sum of Mulliken charges =  -0.00000

 Dipole moment (field-independent basis, Debye):
    X=              5.4201    Y=             -1.4970    Z=              0.1292  Tot=              5.6245
 Quadrupole moment (field-independent basis, Debye-Ang):
   XX=           -179.8488   YY=           -112.9435   ZZ=           -113.3718
   XY=              6.4103   XZ=             -0.8725   YZ=              0.0281

  Exact polarizability:     246.962     -16.291     170.294       2.551      -1.540     106.956
 Approx polarizability:     223.532      -9.593     197.592       1.585      -1.541     127.220

                      1                      2                      3
                      A                      A                      A
 Frequencies --     25.9605                27.8978                55.0439
 Red. masses --      3.1532                 5.8091                10.8010
 Frc consts  --      0.0013                 0.0027                 0.0193
 IR Inten    --      2.4888                 0.3147                 0.0057

                      4                      5                      6
                      A                      A                      A
 Frequencies --     60.4551                73.9849                77.3766
 Red. masses --      5.0802                 3.3618                 3.2850
 Frc consts  --      0.0109                 0.0108                 0.0116
 IR Inten    --      0.1618                 3.9393                 1.3612

                      7                      8                      9
                      A                      A                      A
 Frequencies --    115.0168               141.0492               147.3814
 Red. masses --      5.0131                 8.0779                 5.5150
 Frc consts  --      0.0391                 0.0947                 0.0706
 IR Inten    --      0.2227                 2.8313                 0.7849

                     10                     11                     12
                      A                      A                      A
 Frequencies --    170.2808               179.4538               215.6205
 Red. masses --      9.3367                 3.9449                 7.6980
 Frc consts  --      0.1595                 0.0748                 0.2109
 IR Inten    --      1.9415                 3.5377                 0.6396

                     13                     14                     15
                      A                      A                      A
 Frequencies --    238.0535               252.3102               308.4815
 Red. masses --      1.1520                 5.8256                15.6425
 Frc consts  --      0.0385                 0.2185                 0.8770
 IR Inten    --      0.0030                 0.9786                 1.6632

                     16                     17                     18
                      A                      A                      A
 Frequencies --    318.7892               351.2304               356.7536
 Red. masses --      6.7973                 4.8544                 6.1505
 Frc consts  --      0.4070                 0.3528                 0.4612
 IR Inten    --      0.0072                19.0772                 0.1419

                     19                     20                     21
                      A                      A                      A
 Frequencies --    366.7534               428.5332               466.2270
 Red. masses --      7.8527                 6.7002                 3.8591
 Frc consts  --      0.6223                 0.7249                 0.4942
 IR Inten    --      6.1025                13.1579                 1.6451

                     22                     23                     24
                      A                      A                      A
 Frequencies --    470.5566               531.3291               542.8924
 Red. masses --      6.7325                 7.4439                 7.4790
 Frc consts  --      0.8783                 1.2382                 1.2987
 IR Inten    --      0.9980                26.3216                 8.7745

                     25                     26                     27
                      A                      A                      A
 Frequencies --    563.9485               603.3985               649.6911
 Red. masses --      1.1072                 9.5822                 5.1165
 Frc consts  --      0.2075                 2.0555                 1.2724
 IR Inten    --    103.7241                 3.0678                 1.9194

                     28                     29                     30
                      A                      A                      A
 Frequencies --    673.1615               713.3502               740.6584
 Red. masses --      8.7628                 7.2065                 4.3254
 Frc consts  --      2.3395                 2.1606                 1.3980
 IR Inten    --     20.3720                10.7524                 4.8020

                     31                     32                     33
                      A                      A                      A
 Frequencies --    764.9883               765.9892               790.4659
 Red. masses --      8.8151                 1.1580                 7.4118
 Frc consts  --      3.0394                 0.4003                 2.7286
 IR Inten    --      7.3786                 7.8382                16.9677

                     34                     35                     36
                      A                      A                      A
 Frequencies --    816.3413               864.0897               906.6155
 Red. masses --      8.7942                 1.3720                 1.1538
 Frc consts  --      3.4529                 0.6036                 0.5587
 IR Inten    --      3.1951                40.3850                 2.5867

                     37                     38                     39
                      A                      A                      A
 Frequencies --    910.8871               918.7277               944.7727
 Red. masses --      1.5394                 2.8152                 2.2684
 Frc consts  --      0.7525                 1.4000                 1.1930
 IR Inten    --     37.4862                15.9214                24.2290

                     40                     41                     42
                      A                      A                      A
 Frequencies --   1002.3644              1029.0330              1052.0930
 Red. masses --      1.3227                 7.3047                 5.9071
 Frc consts  --      0.7830                 4.5573                 3.8524
 IR Inten    --      0.0006                35.5074                46.7082

                     43                     44                     45
                      A                      A                      A
 Frequencies --   1077.6252              1130.4482              1160.1045
 Red. masses --      2.4940                 6.8025                 2.8883
 Frc consts  --      1.7064                 5.1218                 2.2903
 IR Inten    --     15.1278                65.2823               130.5324

                     46                     47                     48
                      A                      A                      A
 Frequencies --   1170.0180              1175.7822              1193.8808
 Red. masses --      2.5295                 1.5575                12.9225
 Frc consts  --      2.0402                 1.2687                10.8522
 IR Inten    --      7.9750                84.2924               328.7487

                     49                     50                     51
                      A                      A                      A
 Frequencies --   1195.2601              1217.6055              1263.8519
 Red. masses --      1.6573                 3.6931                 2.4757
 Frc consts  --      1.3950                 3.2259                 2.3300
 IR Inten    --      0.8675               416.1386               322.8881

                     52                     53                     54
                      A                      A                      A
 Frequencies --   1285.1181              1293.3790              1310.4299
 Red. masses --      4.0289                 1.1862                 1.7743
 Frc consts  --      3.9203                 1.1691                 1.7952
 IR Inten    --    802.8085                 1.3025                45.3126

                     55                     56                     57
                      A                      A                      A
 Frequencies --   1338.6996              1340.1094              1349.2923
 Red. masses --      1.0990                 2.9384                 1.5838
 Frc consts  --      1.1604                 3.1091                 1.6989
 IR Inten    --      3.8659                78.1870                37.4631

                     58                     59                     60
                      A                      A                      A
 Frequencies --   1373.4698              1432.5291              1442.6498
 Red. masses --      3.0979                 1.2806                 1.5981
 Frc consts  --      3.4431                 1.5483                 1.9596
 IR Inten    --    332.5605                 6.1866                12.9421

                     61                     62                     63
                      A                      A                      A
 Frequencies --   1465.5800              1503.6231              1519.0193
 Red. masses --      3.2337                 1.0654                 1.0377
 Frc consts  --      4.0923                 1.4192                 1.4108
 IR Inten    --      4.9458                 1.8252                11.7342

                     64                     65                     66
                      A                      A                      A
 Frequencies --   1520.9471              1534.0996              1546.7715
 Red. masses --      1.0830                 1.1041                 3.0310
 Frc consts  --      1.4761                 1.5309                 4.2726
 IR Inten    --      1.8220                60.5908               262.8994

                     67                     68                     69
                      A                      A                      A
 Frequencies --   1598.4945              1663.2638              1689.5892
 Red. masses --      2.2847                 4.9547                 6.2626
 Frc consts  --      3.4396                 8.0758                10.5334
 IR Inten    --    886.9772                26.4192                38.2408

                     70                     71                     72
                      A                      A                      A
 Frequencies --   1834.0076              3070.5668              3079.8827
 Red. masses --     10.2823                 1.0376                 1.0601
 Frc consts  --     20.3771                 5.7641                 5.9246
 IR Inten    --    394.1502                22.2604                 9.6929

                     73                     74                     75
                      A                      A                      A
 Frequencies --   3092.0145              3113.2071              3135.0722
 Red. masses --      1.0574                 1.1043                 1.1058
 Frc consts  --      5.9565                 6.3059                 6.4035
 IR Inten    --     38.0601                 0.1262                 4.2409

                     76                     77                     78
                      A                      A                      A
 Frequencies --   3148.9350              3149.1620              3229.7848
 Red. masses --      1.1044                 1.1053                 1.0911
 Frc consts  --      6.4519                 6.4585                 6.7059
 IR Inten    --     44.5737                51.4406                 3.0586

                     79                     80                     81
                      A                      A                      A
 Frequencies --   3236.3869              3280.9726              3652.8580
 Red. masses --      1.0926                 1.0932                 1.0770
 Frc consts  --      6.7427                 6.9336                 8.4669
 IR Inten    --      0.0900                 9.7409                71.0475

 - Thermochemistry -
 -------------------
 Temperature   298.150 Kelvin.  Pressure   1.00000 Atm.
 Atom     1 has atomic number  6 and mass  12.00000

 Molecular mass:   281.04304 amu.
 Principal axes and moments of inertia in atomic units:
                           1         2         3
     Eigenvalues --  1917.50272********************
           X            0.99762   0.06679  -0.01705
           Y           -0.06642   0.99756   0.02142
           Z            0.01844  -0.02024   0.99963
 This molecule is an asymmetric top.
 Rotational symmetry number  1.
 Warning -- assumption of classical behavior for rotation
           may cause significant error
 Rotational temperatures (Kelvin)      0.04517     0.00627     0.00563
 Rotational constants (GHZ):           0.94119     0.13063     0.11731
 Zero-point vibrational energy     564915.5 (Joules/Mol)
                                  135.01805 (Kcal/Mol)
 Warning -- explicit consideration of  26 degrees of freedom as
           vibrations may cause significant error
 Vibrational temperatures:     37.35    40.14    79.20    86.98   106.45
          (Kelvin)            111.33   165.48   202.94   212.05   245.00
                              258.19   310.23   342.51   363.02   443.84
                              458.67   505.34   513.29   527.68   616.56
                              670.80   677.03   764.46   781.10   811.40
                              868.16   934.76   968.53  1026.35  1065.64
                             1100.65  1102.09  1137.30  1174.53  1243.23
                             1304.42  1310.56  1321.84  1359.32  1442.18
                             1480.55  1513.73  1550.46  1626.46  1669.13
                             1683.39  1691.69  1717.73  1719.71  1751.86
                             1818.40  1849.00  1860.88  1885.42  1926.09
                             1928.12  1941.33  1976.12  2061.09  2075.65
                             2108.64  2163.38  2185.53  2188.30  2207.23
                             2225.46  2299.88  2393.07  2430.94  2638.73
                             4417.86  4431.26  4448.72  4479.21  4510.67
                             4530.62  4530.94  4646.94  4656.44  4720.59
                             5255.65

 Zero-point correction=                           0.215165 (Hartree/Particle)
 Thermal correction to Energy=                    0.232533
 Thermal correction to Enthalpy=                  0.233477
 Thermal correction to Gibbs Free Energy=         0.167144
 Sum of electronic and zero-point Energies=          -1390.467976
 Sum of electronic and thermal Energies=             -1390.450608
 Sum of electronic and thermal Enthalpies=           -1390.449664
 Sum of electronic and thermal Free Energies=        -1390.515997

                     E (Thermal)             CV                S
                      KCal/Mol        Cal/Mol-Kelvin    Cal/Mol-Kelvin
 Total                  145.917             62.455            139.610
 Electronic               0.000              0.000              0.000
 Translational            0.889              2.981             42.798
 Rotational               0.889              2.981             34.365
 Vibrational            144.139             56.494             62.446
 Vibration     1          0.593              1.985              6.116
 Vibration     2          0.593              1.984              5.974
 Vibration     3          0.596              1.976              4.627
 Vibration     4          0.597              1.973              4.442
 Vibration     5          0.599              1.966              4.044
 Vibration     6          0.599              1.964              3.956
 Vibration     7          0.608              1.937              3.182
 Vibration     8          0.615              1.912              2.790
 Vibration     9          0.617              1.906              2.706
 Vibration    10          0.625              1.879              2.432
 Vibration    11          0.629              1.868              2.334
 Vibration    12          0.645              1.817              1.996
 Vibration    13          0.656              1.782              1.817
 Vibration    14          0.664              1.759              1.714
 Vibration    15          0.698              1.658              1.370
 Vibration    16          0.705              1.638              1.316
 Vibration    17          0.728              1.573              1.161
 Vibration    18          0.732              1.561              1.136
 Vibration    19          0.740              1.541              1.093
 Vibration    20          0.790              1.408              0.863
 Vibration    21          0.824              1.325              0.748
 Vibration    22          0.828              1.315              0.736
 Vibration    23          0.886              1.181              0.584
 Vibration    24          0.898              1.155              0.559
 Vibration    25          0.920              1.109              0.516
 Vibration    26          0.962              1.025              0.444

 Optimization completed.
    -- Stationary point found.
 Normal termination of Gaussian 16 at Sat Sep  5 13:24:47 2020.
