 Gaussian 09, Revision E.01,

 ----------------------------------------------------------------------
 # M062X/6-311+G* SCF=Tight INT(grid=ultrafine) OPT IOP(2/17=4) Empiric
 alDispersion=GD3 maxdisk=2147483648
 ----------------------------------------------------------------------

 ---------------------------
 29CA.M062X_6-311pGd_opt_GD3
 ---------------------------
 Symbolic Z-matrix:
 Charge =  0 Multiplicity = 1

 SCF Done:  E(RM062X) =  -1390.67063102     A.U. after   17 cycles
 Optimization completed.
    -- Stationary point found.
 Normal termination of Gaussian 09 at Thu Nov 14 17:02:52 2019.
 Gaussian 09:  ES64L-G09RevE.01 30-Nov-2015

 ----------------------------------------------------------------------
 # M062X/6-311+G* SCF=Tight INT(grid=ultrafine) EmpiricalDispersion=GD3
  Freq=Noraman maxdisk=2147483648 geom=check guess=read IOP(2/17=4)
 ----------------------------------------------------------------------

 ---------------------------
 29CA.M062X_6-311pGd_opt_GD3
 ---------------------------
 Structure from the checkpoint file:  "29CA.M062X_6-311pGd_opt_GD3.chk"
 Charge =  0 Multiplicity = 1

                         Standard orientation:
 ---------------------------------------------------------------------
 Center     Atomic      Atomic             Coordinates (Angstroms)
 Number     Number       Type             X           Y           Z
 ---------------------------------------------------------------------
      1          6           0        0.081672   -1.039998    0.000240
      2          7           0        1.480199   -1.115770    0.000443
      3          6           0        2.373606   -0.074637    0.000150
      4          8           0        2.104673    1.098250   -0.000149
      5          8           0        3.621759   -0.572620    0.000261
      6          6           0        4.673746    0.405064   -0.000142
      7          6           0        5.991907   -0.338386    0.000053
      8          6           0        7.167030    0.635555   -0.000432
      9          6           0       -0.621505    0.166159    0.000203
     10          6           0       -2.012500    0.158090   -0.000003
     11          6           0       -2.714224   -1.045823   -0.000136
     12          6           0       -2.014649   -2.244863   -0.000079
     13          6           0       -0.630566   -2.241469    0.000103
     14          1           0        1.893404   -2.036423    0.000570
     15          1           0        4.565565    1.039524    0.882896
     16          1           0        4.565472    1.038890   -0.883626
     17          1           0        6.034525   -0.987733   -0.878616
     18          1           0        6.034655   -0.987026    0.879236
     19          1           0        7.148450    1.279456   -0.883043
     20          1           0        8.118036    0.101605   -0.000292
     21          1           0        7.148593    1.280171    0.881662
     22          1           0       -0.088629    1.104500    0.000309
     23          6           0       -2.744721    1.478390    0.000081
     24         17           0       -4.450734   -1.098216   -0.000337
     25          1           0       -2.560774   -3.179810   -0.000183
     26          1           0       -0.097041   -3.186671    0.000132
     27          9           0       -1.898356    2.514392    0.000150
     28          9           0       -3.526963    1.612875   -1.078921
     29          9           0       -3.527059    1.612741    1.079045
 ---------------------------------------------------------------------

 SCF Done:  E(RM062X) =  -1390.67063102     A.U. after    2 cycles

 The electronic state is 1-A.
 Alpha  occ. eigenvalues -- -102.68617 -25.27753 -25.27324 -25.27323 -19.68318
 Alpha  occ. eigenvalues --  -19.62232 -14.81210 -10.80572 -10.71842 -10.62778
 Alpha  occ. eigenvalues --  -10.62485 -10.60677 -10.59361 -10.57975 -10.57878
 Alpha  occ. eigenvalues --  -10.57284 -10.55109 -10.54070  -9.82894  -7.55419
 Alpha  occ. eigenvalues --   -7.54720  -7.54710  -1.47078  -1.37645  -1.37334
 Alpha  occ. eigenvalues --   -1.26376  -1.16462  -1.08758  -1.02094  -0.95698
 Alpha  occ. eigenvalues --   -0.91416  -0.90584  -0.86018  -0.82102  -0.80244
 Alpha  occ. eigenvalues --   -0.75252  -0.73554  -0.70718  -0.69372  -0.69340
 Alpha  occ. eigenvalues --   -0.68765  -0.67407  -0.64723  -0.60636  -0.60351
 Alpha  occ. eigenvalues --   -0.58584  -0.57787  -0.57484  -0.56406  -0.55018
 Alpha  occ. eigenvalues --   -0.54944  -0.53861  -0.53341  -0.52127  -0.51920
 Alpha  occ. eigenvalues --   -0.51108  -0.50216  -0.49709  -0.48012  -0.47213
 Alpha  occ. eigenvalues --   -0.46195  -0.44983  -0.44648  -0.44035  -0.41977
 Alpha  occ. eigenvalues --   -0.41745  -0.39157  -0.38864  -0.38262  -0.37904
 Alpha  occ. eigenvalues --   -0.34550  -0.29234
 Alpha virt. eigenvalues --   -0.01910  -0.00712  -0.00671   0.01101   0.01929
 Alpha virt. eigenvalues --    0.02323   0.02928   0.02961   0.04239   0.04460
 Alpha virt. eigenvalues --    0.04827   0.05222   0.06322   0.06440   0.06512

 Mulliken charges:
               1
     1  C   -0.847266
     2  N   -0.483491
     3  C   -0.035362
     4  O   -0.280037
     5  O   -0.054071
     6  C   -0.269029
     7  C   -0.151050
     8  C   -1.027568
     9  C    0.180780
    10  C   -0.881079
    11  C    1.019229
    12  C   -0.522249
    13  C   -0.633782
    14  H    0.400996
    15  H    0.268818
    16  H    0.268815
    17  H    0.258412
    18  H    0.258416
    19  H    0.260040
    20  H    0.273942
    21  H    0.260039
    22  H    0.338707
    23  C    0.616092
    24  Cl   0.444564
    25  H    0.279592
    26  H    0.241516
    27  F   -0.122039
    28  F   -0.031468
    29  F   -0.031469
 Sum of Mulliken charges =  -0.00000

 Dipole moment (field-independent basis, Debye):
    X=              5.0526    Y=             -4.3250    Z=              0.0003  Tot=              6.6509
 Quadrupole moment (field-independent basis, Debye-Ang):
   XX=           -103.5195   YY=           -106.7619   ZZ=           -113.2981
   XY=              2.8614   XZ=             -0.0002   YZ=              0.0005

  Exact polarizability: 226.141   8.976 148.198   0.006  -0.002  95.997
 Approx polarizability: 226.263   3.900 194.762   0.010  -0.003 127.063

                      1                      2                      3
                      A                      A                      A
 Frequencies --     20.4358                24.6559                54.6170
 Red. masses --      3.1626                 5.9728                10.0172
 Frc consts  --      0.0008                 0.0021                 0.0176
 IR Inten    --      1.6021                 0.0007                 0.0465

                      4                      5                      6
                      A                      A                      A
 Frequencies --     57.0985                71.7835                75.3623
 Red. masses --      5.3175                 2.4014                 5.5769
 Frc consts  --      0.0102                 0.0073                 0.0187
 IR Inten    --      0.1200                 2.8002                 0.8850

                      7                      8                      9
                      A                      A                      A
 Frequencies --    113.5061               129.0962               145.9900
 Red. masses --      5.0910                 6.8846                 6.1549
 Frc consts  --      0.0386                 0.0676                 0.0773
 IR Inten    --      0.0796                 0.6346                 0.5452

                     10                     11                     12
                      A                      A                      A
 Frequencies --    175.2425               181.2008               229.1456
 Red. masses --     13.1435                 3.8759                 6.5043
 Frc consts  --      0.2378                 0.0750                 0.2012
 IR Inten    --      1.0471                 2.8132                 0.1137

                     13                     14                     15
                      A                      A                      A
 Frequencies --    238.4636               252.3393               308.8677
 Red. masses --      1.1304                 6.1583                16.1704
 Frc consts  --      0.0379                 0.2310                 0.9089
 IR Inten    --      0.0036                 1.9176                 1.4127

                     16                     17                     18
                      A                      A                      A
 Frequencies --    319.8331               350.7051               352.9557
 Red. masses --      7.1782                 5.7278                 4.9504
 Frc consts  --      0.4326                 0.4151                 0.3634
 IR Inten    --      0.0107                 0.0079                19.4239

                     19                     20                     21
                      A                      A                      A
 Frequencies --    379.7374               419.6821               459.9447
 Red. masses --      8.4493                 5.7357                 6.9122
 Frc consts  --      0.7179                 0.5952                 0.8615
 IR Inten    --      4.7767                 8.5479                 0.8850

                     22                     23                     24
                      A                      A                      A
 Frequencies --    464.7531               528.8112               529.0972
 Red. masses --      3.8810                 7.1860                 1.2846
 Frc consts  --      0.4939                 1.1840                 0.2119
 IR Inten    --      3.6678                16.5884                49.3650

                     25                     26                     27
                      A                      A                      A
 Frequencies --    544.3348               598.8727               648.0480
 Red. masses --      4.1544                 9.6093                 4.5128
 Frc consts  --      0.7253                 2.0305                 1.1166
 IR Inten    --     36.0256                 1.9700                 5.8385

                     28                     29                     30
                      A                      A                      A
 Frequencies --    676.4031               713.1049               746.9171
 Red. masses --      8.8329                 7.3958                 5.1020
 Frc consts  --      2.3810                 2.2159                 1.6770
 IR Inten    --     27.0192                 8.2330                 0.7556

                     31                     32                     33
                      A                      A                      A
 Frequencies --    763.8764               777.0360               789.8461
 Red. masses --      1.1211                 9.6269                 7.8960
 Frc consts  --      0.3854                 3.4247                 2.9023
 IR Inten    --      5.2502                 5.0132                17.4236

                     34                     35                     36
                      A                      A                      A
 Frequencies --    792.0985               838.2524               903.5401
 Red. masses --      8.9312                 1.4366                 1.1546
 Frc consts  --      3.3015                 0.5948                 0.5554
 IR Inten    --      2.0321                40.6518                 2.2215

                     37                     38                     39
                      A                      A                      A
 Frequencies --    928.1387               944.2718               955.5659
 Red. masses --      1.8225                 1.4130                 4.2904
 Frc consts  --      0.9250                 0.7423                 2.3082
 IR Inten    --      1.4651                21.3097                37.2399

                     40                     41                     42
                      A                      A                      A
 Frequencies --    971.0993              1026.3499              1054.3192
 Red. masses --      1.3316                 7.1100                 5.4850
 Frc consts  --      0.7399                 4.4128                 3.5923
 IR Inten    --      2.5255                12.6698                34.7937

                     43                     44                     45
                      A                      A                      A
 Frequencies --   1075.2512              1127.2771              1155.9177
 Red. masses --      2.5427                 5.3057                 2.4271
 Frc consts  --      1.7321                 3.9724                 1.9107
 IR Inten    --      1.9904               120.5209                72.2415

                     46                     47                     48
                      A                      A                      A
 Frequencies --   1168.3963              1183.0537              1197.1272
 Red. masses --      2.3954                 1.5827                 1.6660
 Frc consts  --      1.9267                 1.3051                 1.4067
 IR Inten    --      2.8437                 2.7132                 0.6261

                     49                     50                     51
                      A                      A                      A
 Frequencies --   1211.3560              1234.7972              1256.5167
 Red. masses --     12.9467                 4.6038                 2.7067
 Frc consts  --     11.1932                 4.1358                 2.5178
 IR Inten    --    272.7112               362.0163               388.8716

                     52                     53                     54
                      A                      A                      A
 Frequencies --   1281.7036              1294.2815              1299.2793
 Red. masses --      3.0283                 1.1828                 2.2893
 Frc consts  --      2.9310                 1.1674                 2.2770
 IR Inten    --    371.0516                 0.6890               119.6675

                     55                     56                     57
                      A                      A                      A
 Frequencies --   1318.9510              1339.0073              1348.6619
 Red. masses --      2.5567                 1.0673                 1.4282
 Frc consts  --      2.6205                 1.1275                 1.5305
 IR Inten    --    164.9595                 0.3572                10.1755

                     58                     59                     60
                      A                      A                      A
 Frequencies --   1373.3529              1432.6101              1444.8858
 Red. masses --      3.9883                 1.2747                 1.5183
 Frc consts  --      4.4321                 1.5414                 1.8675
 IR Inten    --    134.1713                 4.5145                39.0180

                     61                     62                     63
                      A                      A                      A
 Frequencies --   1481.1774              1510.4805              1524.1281
 Red. masses --      5.1398                 1.0617                 1.0367
 Frc consts  --      6.6437                 1.4273                 1.4189
 IR Inten    --    327.2629                 1.1790                10.4265

                     64                     65                     66
                      A                      A                      A
 Frequencies --   1525.1723              1533.8883              1538.8903
 Red. masses --      1.0848                 2.0049                 1.2433
 Frc consts  --      1.4868                 2.7792                 1.7348
 IR Inten    --      1.4809                 7.1505                52.2084

                     67                     68                     69
                      A                      A                      A
 Frequencies --   1590.7773              1664.4102              1689.0124
 Red. masses --      2.5001                 5.7146                 6.2472
 Frc consts  --      3.7276                 9.3273                10.5003
 IR Inten    --    729.1858               113.3531                17.9445

                     70                     71                     72
                      A                      A                      A
 Frequencies --   1849.8002              3071.3822              3078.9813
 Red. masses --     10.6313                 1.0382                 1.0595
 Frc consts  --     21.4331                 5.7706                 5.9177
 IR Inten    --    297.1826                17.9166                 6.8762

                     73                     74                     75
                      A                      A                      A
 Frequencies --   3090.3730              3111.7478              3133.8872
 Red. masses --      1.0574                 1.1044                 1.1063
 Frc consts  --      5.9502                 6.3008                 6.4014
 IR Inten    --     33.8222                 0.0815                 0.4816

                     76                     77                     78
                      A                      A                      A
 Frequencies --   3148.0078              3152.6887              3206.3406
 Red. masses --      1.1068                 1.1014                 1.0905
 Frc consts  --      6.4624                 6.4501                 6.6056
 IR Inten    --     57.1050                24.5224                 7.9787

                     79                     80                     81
                      A                      A                      A
 Frequencies --   3243.0759              3287.9231              3658.1633
 Red. masses --      1.0942                 1.0915                 1.0771
 Frc consts  --      6.7805                 6.9518                 8.4928
 IR Inten    --      0.3854                19.8703                47.7000

 - Thermochemistry -
 -------------------
 Temperature   298.150 Kelvin.  Pressure   1.00000 Atm.
 Atom     1 has atomic number  6 and mass  12.00000

 Molecular mass:   281.04304 amu.
 Principal axes and moments of inertia in atomic units:
                           1         2         3
     Eigenvalues --  2023.66374********************
           X            0.99995   0.01029  -0.00000
           Y           -0.01029   0.99995  -0.00001
           Z            0.00000   0.00001   1.00000
 This molecule is an asymmetric top.
 Rotational symmetry number  1.
 Warning -- assumption of classical behavior for rotation
           may cause significant error
 Rotational temperatures (Kelvin)      0.04280     0.00685     0.00605
 Rotational constants (GHZ):           0.89182     0.14272     0.12603
 Zero-point vibrational energy     564566.4 (Joules/Mol)
                                  134.93461 (Kcal/Mol)
 Warning -- explicit consideration of  26 degrees of freedom as
           vibrations may cause significant error
 Vibrational temperatures:     29.40    35.47    78.58    82.15   103.28
          (Kelvin)            108.43   163.31   185.74   210.05   252.13
                              260.71   329.69   343.10   363.06   444.39
                              460.17   504.59   507.82   546.36   603.83
                              661.76   668.68   760.84   761.25   783.18
                              861.64   932.40   973.19  1026.00  1074.65
                             1099.05  1117.98  1136.41  1139.65  1206.06
                             1299.99  1335.38  1358.59  1374.84  1397.19
                             1476.69  1516.93  1547.04  1621.90  1663.11
                             1681.06  1702.15  1722.40  1742.87  1776.60
                             1807.85  1844.08  1862.18  1869.37  1897.67
                             1926.53  1940.42  1975.95  2061.20  2078.87
                             2131.08  2173.24  2192.88  2194.38  2206.92
                             2214.12  2288.77  2394.71  2430.11  2661.45
                             4419.03  4429.96  4446.35  4477.11  4508.96
                             4529.28  4536.01  4613.20  4666.06  4730.58
                             5263.27

 Zero-point correction=                           0.215032 (Hartree/Particle)
 Thermal correction to Energy=                    0.232466
 Thermal correction to Enthalpy=                  0.233410
 Thermal correction to Gibbs Free Energy=         0.166604
 Sum of electronic and zero-point Energies=          -1390.455599
 Sum of electronic and thermal Energies=             -1390.438165
 Sum of electronic and thermal Enthalpies=           -1390.437221
 Sum of electronic and thermal Free Energies=        -1390.504027

                     E (Thermal)             CV                S
                      KCal/Mol        Cal/Mol-Kelvin    Cal/Mol-Kelvin
 Total                  145.875             62.573            140.605
 Electronic               0.000              0.000              0.000
 Translational            0.889              2.981             42.798
 Rotational               0.889              2.981             34.260
 Vibrational            144.097             56.612             63.547
 Vibration     1          0.593              1.986              6.591
 Vibration     2          0.593              1.985              6.219
 Vibration     3          0.596              1.976              4.643
 Vibration     4          0.596              1.975              4.555
 Vibration     5          0.598              1.967              4.104
 Vibration     6          0.599              1.965              4.008
 Vibration     7          0.607              1.938              3.208
 Vibration     8          0.612              1.924              2.959
 Vibration     9          0.617              1.907              2.724
 Vibration    10          0.627              1.873              2.379
 Vibration    11          0.630              1.865              2.316
 Vibration    12          0.652              1.797              1.886
 Vibration    13          0.656              1.782              1.814
 Vibration    14          0.664              1.759              1.714
 Vibration    15          0.698              1.657              1.368
 Vibration    16          0.706              1.636              1.311
 Vibration    17          0.728              1.574              1.163
 Vibration    18          0.729              1.569              1.153
 Vibration    19          0.750              1.513              1.040
 Vibration    20          0.782              1.427              0.893
 Vibration    21          0.818              1.339              0.766
 Vibration    22          0.822              1.328              0.752
 Vibration    23          0.884              1.186              0.590
 Vibration    24          0.884              1.186              0.589
 Vibration    25          0.899              1.152              0.556
 Vibration    26          0.957              1.034              0.452

 Optimization completed.
    -- Stationary point found.
 Normal termination of Gaussian 09 at Thu Nov 14 18:06:15 2019.
