 Gaussian 09, Revision E.01,

 ----------------------------------------------------------------------
 # M062X/6-311+G* SCF=Tight INT(grid=ultrafine) OPT IOP(2/17=4) Empiric
 alDispersion=GD3 SCRF=(SMD,Solvent=h2o) maxdisk=2147483648
 ----------------------------------------------------------------------

 ------------------------------------
 29CA_c2.M062X_6-311pGd_opt_water_GD3
 ------------------------------------
 Symbolic Z-matrix:
 Charge =  0 Multiplicity = 1

 SCF Done:  E(RM062X) =  -1390.68063853     A.U. after   15 cycles
 Optimization completed.
    -- Stationary point found.
 Normal termination of Gaussian 09 at Thu Nov 14 17:02:33 2019.
 Gaussian 09:  ES64L-G09RevE.01 30-Nov-2015

 ----------------------------------------------------------------------
 # M062X/6-311+G* SCF=Tight INT(grid=ultrafine) SCRF=(SMD,Solvent=h2o)
 EmpiricalDispersion=GD3 Freq=Noraman maxdisk=2147483648 geom=check gue
 ss=read IOP(2/17=4)
 ----------------------------------------------------------------------

 ------------------------------------
 29CA_c2.M062X_6-311pGd_opt_water_GD3
 ------------------------------------
 Structure from the checkpoint file:  "29CA_c2.M062X_6-311pGd_opt_water_GD3.chk"
 Charge =  0 Multiplicity = 1

                         Standard orientation:
 ---------------------------------------------------------------------
 Center     Atomic      Atomic             Coordinates (Angstroms)
 Number     Number       Type             X           Y           Z
 ---------------------------------------------------------------------
      1          6           0        0.151829   -0.222765   -0.110346
      2          7           0        1.456509    0.284189   -0.171423
      3          6           0        2.617356   -0.403068    0.015876
      4          8           0        2.714391   -1.591790    0.249976
      5          8           0        3.660923    0.428137   -0.094678
      6          6           0        4.965839   -0.162800    0.083501
      7          6           0        5.991794    0.933868   -0.089845
      8          6           0        7.400997    0.377286    0.082106
      9          6           0       -0.884326    0.713261   -0.053304
     10          6           0       -2.207710    0.303425   -0.015387
     11          6           0       -2.509883   -1.059247   -0.027759
     12          6           0       -1.486484   -1.990425   -0.084558
     13          6           0       -0.158688   -1.582919   -0.130521
     14          1           0        1.551379    1.285155   -0.294502
     15          1           0        5.094580   -0.952679   -0.659379
     16          1           0        5.015247   -0.603989    1.081165
     17          1           0        5.802816    1.721458    0.644656
     18          1           0        5.877560    1.377225   -1.082788
     19          1           0        7.534616   -0.056870    1.076133
     20          1           0        8.147514    1.163347   -0.042280
     21          1           0        7.609304   -0.402018   -0.655278
     22          1           0       -0.644894    1.770307   -0.039624
     23          6           0       -3.295574    1.339989    0.040648
     24         17           0       -4.158000   -1.627016    0.020788
     25          1           0       -1.722491   -3.047403   -0.100394
     26          1           0        0.619252   -2.328543   -0.189137
     27          9           0       -2.807500    2.586083    0.046317
     28          9           0       -4.127836    1.258171   -1.011137
     29          9           0       -4.054426    1.219474    1.142949
 ---------------------------------------------------------------------

 SCF Done:  E(RM062X) =  -1390.68063853     A.U. after    2 cycles

 The electronic state is 1-A.
 Alpha  occ. eigenvalues -- -102.68959 -25.28951 -25.28577 -25.28575 -19.67569
 Alpha  occ. eigenvalues --  -19.62021 -14.79936 -10.81606 -10.71597 -10.62502
 Alpha  occ. eigenvalues --  -10.61587 -10.59312 -10.59003 -10.57273 -10.56792
 Alpha  occ. eigenvalues --  -10.56311 -10.53074 -10.51908  -9.83236  -7.55752
 Alpha  occ. eigenvalues --   -7.55071  -7.55060  -1.48204  -1.38803  -1.38461
 Alpha  occ. eigenvalues --   -1.25604  -1.15686  -1.07695  -1.01854  -0.95457
 Alpha  occ. eigenvalues --   -0.90753  -0.89380  -0.85547  -0.82022  -0.79112
 Alpha  occ. eigenvalues --   -0.74950  -0.72898  -0.70871  -0.70528  -0.69848
 Alpha  occ. eigenvalues --   -0.67458  -0.65261  -0.64679  -0.59912  -0.59235
 Alpha  occ. eigenvalues --   -0.58742  -0.58735  -0.58028  -0.56393  -0.55322
 Alpha  occ. eigenvalues --   -0.54505  -0.53625  -0.53214  -0.52400  -0.51894
 Alpha  occ. eigenvalues --   -0.50925  -0.49591  -0.49288  -0.46939  -0.46348
 Alpha  occ. eigenvalues --   -0.45231  -0.44467  -0.43412  -0.42710  -0.40122
 Alpha  occ. eigenvalues --   -0.40105  -0.39235  -0.38485  -0.37861  -0.37714
 Alpha  occ. eigenvalues --   -0.33941  -0.28816
 Alpha virt. eigenvalues --   -0.01392  -0.00326   0.01152   0.02002   0.02751
 Alpha virt. eigenvalues --    0.03079   0.03833   0.03936   0.04255   0.05078
 Alpha virt. eigenvalues --    0.05235   0.05766   0.06532   0.06712   0.07044

 Mulliken charges:
               1
     1  C   -0.963921
     2  N   -0.473497
     3  C    0.106665
     4  O   -0.430048
     5  O   -0.084228
     6  C   -0.310628
     7  C   -0.170298
     8  C   -1.059811
     9  C   -0.829489
    10  C   -1.350511
    11  C    1.160139
    12  C   -0.704051
    13  C    0.725799
    14  H    0.480243
    15  H    0.290019
    16  H    0.288283
    17  H    0.270943
    18  H    0.270918
    19  H    0.272563
    20  H    0.283897
    21  H    0.272087
    22  H    0.317764
    23  C    0.823919
    24  Cl   0.417607
    25  H    0.323175
    26  H    0.319629
    27  F   -0.141720
    28  F   -0.054610
    29  F   -0.050837
 Sum of Mulliken charges =   0.00000

 Dipole moment (field-independent basis, Debye):
    X=              5.9985    Y=              1.8545    Z=             -0.7849  Tot=              6.3275
 Quadrupole moment (field-independent basis, Debye-Ang):
   XX=           -111.9909   YY=           -110.3436   ZZ=           -113.5355
   XY=             11.5551   XZ=             -0.7992   YZ=              1.2801

  Exact polarizability: 281.101   9.150 216.507  -0.683  -2.588 139.798
 Approx polarizability: 225.700   7.469 195.046  -1.173  -2.383 128.287

                      1                      2                      3
                      A                      A                      A
 Frequencies --     17.0951                28.7475                50.9022
 Red. masses --      4.6991                 4.7749                 7.7310
 Frc consts  --      0.0008                 0.0023                 0.0118
 IR Inten    --      3.2074                 4.3508                 0.1287

                      4                      5                      6
                      A                      A                      A
 Frequencies --     58.9520                71.6087                89.6420
 Red. masses --      5.9428                 4.0212                 2.5164
 Frc consts  --      0.0122                 0.0121                 0.0119
 IR Inten    --      0.3795                 1.2970                 5.9995

                      7                      8                      9
                      A                      A                      A
 Frequencies --    111.9713               137.4766               146.9718
 Red. masses --      5.1170                 7.3818                 6.5902
 Frc consts  --      0.0378                 0.0822                 0.0839
 IR Inten    --      0.5194                 3.3316                 2.4561

                     10                     11                     12
                      A                      A                      A
 Frequencies --    170.3088               175.0668               215.3470
 Red. masses --      7.8502                 4.0151                 7.6931
 Frc consts  --      0.1342                 0.0725                 0.2102
 IR Inten    --      3.9688                 6.2249                 1.2954

                     13                     14                     15
                      A                      A                      A
 Frequencies --    245.4444               251.8636               307.4876
 Red. masses --      1.1345                 5.7089                15.2829
 Frc consts  --      0.0403                 0.2134                 0.8514
 IR Inten    --      0.1453                 1.5624                 2.8255

                     16                     17                     18
                      A                      A                      A
 Frequencies --    314.6708               347.9764               357.8979
 Red. masses --      7.0117                 5.2423                 5.5031
 Frc consts  --      0.4091                 0.3740                 0.4153
 IR Inten    --      0.6490                10.3042                13.5499

                     19                     20                     21
                      A                      A                      A
 Frequencies --    367.5995               426.7237               466.1377
 Red. masses --      7.8139                 6.7536                 4.0921
 Frc consts  --      0.6221                 0.7246                 0.5239
 IR Inten    --      5.2054                20.0731                 4.1332

                     22                     23                     24
                      A                      A                      A
 Frequencies --    470.3128               528.2311               540.1342
 Red. masses --      6.1283                 7.0406                 7.0587
 Frc consts  --      0.7987                 1.1575                 1.2133
 IR Inten    --      3.2341                42.9657                23.4065

                     25                     26                     27
                      A                      A                      A
 Frequencies --    551.3409               601.4756               647.0399
 Red. masses --      1.1263                 9.6151                 4.9720
 Frc consts  --      0.2017                 2.0495                 1.2264
 IR Inten    --    186.0825                 4.3441                 3.1913

                     28                     29                     30
                      A                      A                      A
 Frequencies --    669.3839               706.0872               737.2407
 Red. masses --      8.5212                 7.1716                 4.4201
 Frc consts  --      2.2496                 2.1066                 1.4155
 IR Inten    --     27.3769                15.0362                 7.6367

                     31                     32                     33
                      A                      A                      A
 Frequencies --    760.0488               765.9085               788.3730
 Red. masses --     10.4753                 1.1272                 7.3063
 Frc consts  --      3.5653                 0.3896                 2.6755
 IR Inten    --      9.6374                19.0493                31.1587

                     34                     35                     36
                      A                      A                      A
 Frequencies --    810.5543               853.5047               908.7249
 Red. masses --      8.5372                 1.4016                 1.1493
 Frc consts  --      3.3047                 0.6016                 0.5592
 IR Inten    --     12.9964                63.0718                 2.7506

                     37                     38                     39
                      A                      A                      A
 Frequencies --    911.1599               918.1553               941.8534
 Red. masses --      1.7128                 2.5680                 2.1199
 Frc consts  --      0.8378                 1.2755                 1.1080
 IR Inten    --     60.5171                31.3431                33.1473

                     40                     41                     42
                      A                      A                      A
 Frequencies --    994.4607              1015.0657              1048.5369
 Red. masses --      1.3400                 7.6299                 6.3006
 Frc consts  --      0.7808                 4.6319                 4.0813
 IR Inten    --      0.7160                41.2845                66.0178

                     43                     44                     45
                      A                      A                      A
 Frequencies --   1075.3153              1116.3971              1151.1240
 Red. masses --      2.4165                 7.8560                12.6035
 Frc consts  --      1.6463                 5.7689                 9.8398
 IR Inten    --     12.6370               130.3172               463.7381

                     46                     47                     48
                      A                      A                      A
 Frequencies --   1156.8345              1163.1653              1167.0398
 Red. masses --      3.4076                 2.0293                 1.9715
 Frc consts  --      2.6868                 1.6176                 1.5820
 IR Inten    --    135.9891                76.2334               240.8066

                     49                     50                     51
                      A                      A                      A
 Frequencies --   1191.2131              1198.6384              1254.9027
 Red. masses --      1.6546                 3.0051                 2.6506
 Frc consts  --      1.3833                 2.5439                 2.4593
 IR Inten    --      1.3784               525.5602               869.1248

                     52                     53                     54
                      A                      A                      A
 Frequencies --   1275.5005              1288.8335              1317.6613
 Red. masses --      3.4586                 1.1836                 1.7442
 Frc consts  --      3.3153                 1.1583                 1.7843
 IR Inten    --    309.6620                 2.9950                33.5414

                     55                     56                     57
                      A                      A                      A
 Frequencies --   1336.1987              1337.4532              1346.4292
 Red. masses --      1.6423                 1.6328                 1.6166
 Frc consts  --      1.7276                 1.7208                 1.7267
 IR Inten    --     40.3709                50.3200                28.4526

                     58                     59                     60
                      A                      A                      A
 Frequencies --   1370.0024              1418.4476              1438.9275
 Red. masses --      2.6645                 1.2757                 1.6445
 Frc consts  --      2.9465                 1.5123                 2.0061
 IR Inten    --    460.6427                 8.8128                 7.3130

                     61                     62                     63
                      A                      A                      A
 Frequencies --   1459.9694              1483.8167              1502.7991
 Red. masses --      2.9256                 1.0636                 1.0379
 Frc consts  --      3.6741                 1.3797                 1.3810
 IR Inten    --      3.1670                 1.4774                13.6554

                     64                     65                     66
                      A                      A                      A
 Frequencies --   1508.6005              1521.8534              1543.6247
 Red. masses --      1.0936                 1.1028                 2.9735
 Frc consts  --      1.4665                 1.5049                 4.1745
 IR Inten    --      1.8242                50.9589               438.6491

                     67                     68                     69
                      A                      A                      A
 Frequencies --   1582.3520              1661.5440              1684.9762
 Red. masses --      2.2235                 5.1292                 6.3470
 Frc consts  --      3.2802                 8.3429                10.6172
 IR Inten    --    990.5074                16.4113                50.2801

                     70                     71                     72
                      A                      A                      A
 Frequencies --   1738.7923              3070.3737              3080.2918
 Red. masses --      9.9390                 1.0369                 1.0603
 Frc consts  --     17.7047                 5.7595                 5.9273
 IR Inten    --    860.5327                31.4308                24.9653

                     73                     74                     75
                      A                      A                      A
 Frequencies --   3096.7148              3115.8633              3138.4498
 Red. masses --      1.0570                 1.1041                 1.1048
 Frc consts  --      5.9722                 6.3159                 6.4118
 IR Inten    --     50.7843                 1.2781                32.9874

                     76                     77                     78
                      A                      A                      A
 Frequencies --   3148.7801              3154.3094              3242.5689
 Red. masses --      1.1025                 1.1100                 1.0923
 Frc consts  --      6.4401                 6.5071                 6.7668
 IR Inten    --     41.4606                84.6127                 2.1356

                     79                     80                     81
                      A                      A                      A
 Frequencies --   3244.1316              3284.2379              3618.6662
 Red. masses --      1.0922                 1.0934                 1.0783
 Frc consts  --      6.7725                 6.9484                 8.3190
 IR Inten    --      2.2171                 7.2494               171.6859

 - Thermochemistry -
 -------------------
 Temperature   298.150 Kelvin.  Pressure   1.00000 Atm.
 Atom     1 has atomic number  6 and mass  12.00000

 Molecular mass:   281.04304 amu.
 Principal axes and moments of inertia in atomic units:
                           1         2         3
     Eigenvalues --  1914.12783********************
           X            0.99996   0.00923   0.00064
           Y           -0.00923   0.99996  -0.00033
           Z           -0.00064   0.00032   1.00000
 This molecule is an asymmetric top.
 Rotational symmetry number  1.
 Warning -- assumption of classical behavior for rotation
           may cause significant error
 Rotational temperatures (Kelvin)      0.04525     0.00627     0.00564
 Rotational constants (GHZ):           0.94285     0.13067     0.11752
 Zero-point vibrational energy     562330.3 (Joules/Mol)
                                  134.40017 (Kcal/Mol)
 Warning -- explicit consideration of  26 degrees of freedom as
           vibrations may cause significant error
 Vibrational temperatures:     24.60    41.36    73.24    84.82   103.03
          (Kelvin)            128.97   161.10   197.80   211.46   245.04
                              251.88   309.84   353.14   362.38   442.41
                              452.74   500.66   514.93   528.89   613.96
                              670.67   676.67   760.01   777.13   793.26
                              865.39   930.94   963.09  1015.90  1060.72
                             1093.54  1101.97  1134.29  1166.21  1228.00
                             1307.45  1310.95  1321.02  1355.12  1430.81
                             1460.45  1508.61  1547.14  1606.24  1656.21
                             1664.42  1673.53  1679.11  1713.89  1724.57
                             1805.52  1835.16  1854.34  1895.82  1922.49
                             1924.29  1937.21  1971.13  2040.83  2070.29
                             2100.57  2134.88  2162.19  2170.54  2189.60
                             2220.93  2276.65  2390.59  2424.30  2501.73
                             4417.58  4431.85  4455.48  4483.03  4515.52
                             4530.39  4538.34  4665.33  4667.58  4725.28
                             5206.45

 Zero-point correction=                           0.214180 (Hartree/Particle)
 Thermal correction to Energy=                    0.231620
 Thermal correction to Enthalpy=                  0.232564
 Thermal correction to Gibbs Free Energy=         0.165752
 Sum of electronic and zero-point Energies=          -1390.466458
 Sum of electronic and thermal Energies=             -1390.449019
 Sum of electronic and thermal Enthalpies=           -1390.448075
 Sum of electronic and thermal Free Energies=        -1390.514887

                     E (Thermal)             CV                S
                      KCal/Mol        Cal/Mol-Kelvin    Cal/Mol-Kelvin
 Total                  145.344             62.736            140.618
 Electronic               0.000              0.000              0.000
 Translational            0.889              2.981             42.798
 Rotational               0.889              2.981             34.362
 Vibrational            143.566             56.774             63.458
 Vibration     1          0.593              1.986              6.946
 Vibration     2          0.593              1.984              5.914
 Vibration     3          0.595              1.977              4.782
 Vibration     4          0.596              1.974              4.492
 Vibration     5          0.598              1.968              4.109
 Vibration     6          0.602              1.957              3.668
 Vibration     7          0.607              1.940              3.234
 Vibration     8          0.614              1.916              2.839
 Vibration     9          0.617              1.906              2.711
 Vibration    10          0.625              1.879              2.432
 Vibration    11          0.627              1.873              2.380
 Vibration    12          0.645              1.818              1.998
 Vibration    13          0.660              1.770              1.763
 Vibration    14          0.664              1.760              1.718
 Vibration    15          0.697              1.659              1.376
 Vibration    16          0.702              1.646              1.338
 Vibration    17          0.726              1.579              1.175
 Vibration    18          0.733              1.559              1.131
 Vibration    19          0.740              1.539              1.090
 Vibration    20          0.788              1.412              0.869
 Vibration    21          0.823              1.325              0.748
 Vibration    22          0.827              1.316              0.737
 Vibration    23          0.883              1.188              0.591
 Vibration    24          0.895              1.161              0.565
 Vibration    25          0.907              1.137              0.541
 Vibration    26          0.960              1.029              0.447

 Optimization completed.
    -- Stationary point found.
 Normal termination of Gaussian 09 at Thu Nov 14 18:06:55 2019.
