 Gaussian 09, Revision E.01,
 Gaussian 09:  ES64L-G09RevE.01 30-Nov-2015

 -------------------------------------------------------------
 # MP2/Gen 6D SCF=Tight INT(grid=ultrafine) maxdisk=3489660928
 -------------------------------------------------------------

 ----------------
 29CA.MP2_6-31pGd
 ----------------
 Symbolic Z-matrix:
 Charge =  0 Multiplicity = 1

                         Standard orientation:
 ---------------------------------------------------------------------
 Center     Atomic      Atomic             Coordinates (Angstroms)
 Number     Number       Type             X           Y           Z
 ---------------------------------------------------------------------
      1          6           0        0.081672   -1.039998    0.000240
      2          7           0        1.480199   -1.115770    0.000443
      3          6           0        2.373606   -0.074637    0.000150
      4          8           0        2.104673    1.098250   -0.000149
      5          8           0        3.621759   -0.572620    0.000261
      6          6           0        4.673746    0.405064   -0.000142
      7          6           0        5.991907   -0.338386    0.000053
      8          6           0        7.167030    0.635555   -0.000432
      9          6           0       -0.621505    0.166159    0.000203
     10          6           0       -2.012500    0.158090   -0.000003
     11          6           0       -2.714224   -1.045823   -0.000136
     12          6           0       -2.014649   -2.244863   -0.000079
     13          6           0       -0.630566   -2.241469    0.000103
     14          1           0        1.893404   -2.036423    0.000570
     15          1           0        4.565565    1.039524    0.882896
     16          1           0        4.565472    1.038890   -0.883626
     17          1           0        6.034525   -0.987733   -0.878616
     18          1           0        6.034655   -0.987026    0.879236
     19          1           0        7.148450    1.279456   -0.883043
     20          1           0        8.118036    0.101605   -0.000292
     21          1           0        7.148593    1.280171    0.881662
     22          1           0       -0.088629    1.104500    0.000309
     23          6           0       -2.744721    1.478390    0.000081
     24         17           0       -4.450734   -1.098216   -0.000337
     25          1           0       -2.560774   -3.179810   -0.000183
     26          1           0       -0.097041   -3.186671    0.000132
     27          9           0       -1.898356    2.514392    0.000150
     28          9           0       -3.526963    1.612875   -1.078921
     29          9           0       -3.527059    1.612741    1.079045
 ---------------------------------------------------------------------

 SCF Done:  E(RHF) =  -1384.99778322     A.U. after   17 cycles
 E2 =    -0.2592553757D+01 EUMP2 =    -0.13875903369741D+04

 The electronic state is 1-A.
 Alpha  occ. eigenvalues -- -104.83945 -26.35175 -26.34696 -26.34695 -20.63071
 Alpha  occ. eigenvalues --  -20.56634 -15.63474 -11.52024 -11.43455 -11.32498
 Alpha  occ. eigenvalues --  -11.32308 -11.30196 -11.29027 -11.27648 -11.27436
 Alpha  occ. eigenvalues --  -11.26690 -11.24215 -11.23327 -10.57192  -8.04136
 Alpha  occ. eigenvalues --   -8.03789  -8.03784  -1.73362  -1.63623  -1.63284
 Alpha  occ. eigenvalues --   -1.49365  -1.38581  -1.29014  -1.21316  -1.13460
 Alpha  occ. eigenvalues --   -1.08896  -1.08151  -1.02535  -0.97494  -0.95530
 Alpha  occ. eigenvalues --   -0.89178  -0.87373  -0.83933  -0.82360  -0.82124
 Alpha  occ. eigenvalues --   -0.81659  -0.79696  -0.76512  -0.72151  -0.71021
 Alpha  occ. eigenvalues --   -0.70816  -0.70804  -0.69267  -0.67645  -0.65917
 Alpha  occ. eigenvalues --   -0.65814  -0.65234  -0.64346  -0.64303  -0.63026
 Alpha  occ. eigenvalues --   -0.61821  -0.59827  -0.58900  -0.56527  -0.55961
 Alpha  occ. eigenvalues --   -0.55080  -0.54438  -0.53021  -0.51656  -0.50306
 Alpha  occ. eigenvalues --   -0.49840  -0.47781  -0.47488  -0.46253  -0.45167
 Alpha  occ. eigenvalues --   -0.37857  -0.32727
 Alpha virt. eigenvalues --    0.05096   0.07209   0.07707   0.07892   0.08284
 Alpha virt. eigenvalues --    0.08694   0.08846   0.09658   0.10270   0.10689
 Alpha virt. eigenvalues --    0.11256   0.11628   0.12356   0.13018   0.13024

 Mulliken charges:
               1
     1  C   -0.211003
     2  N   -0.941966
     3  C    0.798379
     4  O   -0.590225
     5  O   -0.470074
     6  C    0.126118
     7  C   -0.285320
     8  C   -0.687446
     9  C    0.303736
    10  C   -0.800115
    11  C    0.442182
    12  C   -0.470725
    13  C   -0.842482
    14  H    0.499828
    15  H    0.212309
    16  H    0.212303
    17  H    0.203786
    18  H    0.203788
    19  H    0.196646
    20  H    0.203908
    21  H    0.196646
    22  H    0.350744
    23  C    1.679521
    24  Cl   0.320728
    25  H    0.267293
    26  H    0.240554
    27  F   -0.436535
    28  F   -0.361284
    29  F   -0.361297
 Sum of Mulliken charges =  -0.00000

 Dipole moment (field-independent basis, Debye):
    X=              5.2940    Y=             -4.4882    Z=              0.0003  Tot=              6.9405
 Quadrupole moment (field-independent basis, Debye-Ang):
   XX=           -105.5956   YY=           -107.5659   ZZ=           -113.7443
   XY=              2.6481   XZ=             -0.0003   YZ=              0.0006

 Normal termination of Gaussian 09 at Mon Dec  9 10:37:38 2019.
