 Gaussian 09, Revision E.01,

 ----------------------------------------------------------------------
 # M062X/6-311+G* SCF=Tight INT(grid=ultrafine) OPT IOP(2/17=4) Empiric
 alDispersion=GD3 SCRF=(SMD,Solvent=h2o) maxdisk=3221225472
 ----------------------------------------------------------------------

 -------------------------------------------
 NM2_c2_carboxy.M062X_6-311pGd_opt_water_GD3
 -------------------------------------------
 Symbolic Z-matrix:
 Charge = -1 Multiplicity = 1

 SCF Done:  E(RM062X) =  -1516.19606072     A.U. after   15 cycles
 SCF Done:  E(RM062X) =  -1516.19606069     A.U. after    8 cycles
 SCF Done:  E(RM062X) =  -1516.19606075     A.U. after    8 cycles
 SCF Done:  E(RM062X) =  -1516.19606075     A.U. after    8 cycles
 Optimization completed.
    -- Stationary point found.
 Normal termination of Gaussian 09 at Thu Nov 14 22:23:46 2019.
 Gaussian 09:  ES64L-G09RevE.01 30-Nov-2015

 ----------------------------------------------------------------------
 # M062X/6-311+G* SCF=Tight INT(grid=ultrafine) SCRF=(SMD,Solvent=h2o)
 EmpiricalDispersion=GD3 Freq=Noraman maxdisk=3221225472 geom=check gue
 ss=read IOP(2/17=4)
 ----------------------------------------------------------------------

 -------------------------------------------
 NM2_c2_carboxy.M062X_6-311pGd_opt_water_GD3
 -------------------------------------------
 Structure from the checkpoint file:  "NM2_c2_carboxy.M062X_6-311pGd_opt_water_GD3.chk"
 Charge = -1 Multiplicity = 1

                         Standard orientation:
 ---------------------------------------------------------------------
 Center     Atomic      Atomic             Coordinates (Angstroms)
 Number     Number       Type             X           Y           Z
 ---------------------------------------------------------------------
      1          6           0        0.336369   -0.876863   -0.060537
      2          7           0       -1.043826   -0.765913   -0.055572
      3          6           0       -1.966089   -1.792282    0.060243
      4          8           0       -1.648177   -2.977225    0.219147
      5          7           0       -3.244445   -1.381057   -0.002510
      6          6           0       -4.342658   -2.328392    0.120471
      7          6           0       -5.674907   -1.598710    0.053126
      8          6           0       -6.841546   -2.570468    0.180110
      9          6           0        1.060477    0.324201    0.055757
     10          6           0        2.441461    0.335599    0.044808
     11          6           0        3.157061   -0.866420   -0.092242
     12          6           0        2.438048   -2.049362   -0.207308
     13          6           0        1.049925   -2.071339   -0.197086
     14          1           0       -1.415179    0.195151   -0.028776
     15          1           0       -3.463529   -0.399651   -0.194807
     16          1           0       -4.257614   -2.866644    1.069292
     17          1           0       -4.282795   -3.073500   -0.679474
     18          1           0       -5.741538   -1.054102   -0.894014
     19          1           0       -5.718097   -0.851953    0.852162
     20          1           0       -6.825613   -3.310200   -0.624583
     21          1           0       -7.797932   -2.046315    0.132824
     22          1           0       -6.802154   -3.109459    1.130363
     23          1           0        0.512927    1.253629    0.157993
     24          1           0        0.534671   -3.012524   -0.301754
     25          6           0        4.655939   -0.947440   -0.085031
     26          6           0        3.116792    1.680588    0.148443
     27          1           0        2.966960   -2.987898   -0.315978
     28          9           0        5.235990    0.017141   -0.820139
     29          9           0        5.094530   -2.114585   -0.579408
     30          9           0        5.177736   -0.849348    1.153601
     31          9           0        2.290723    2.623997    0.618849
     32          9           0        3.553355    2.122104   -1.044297
     33          9           0        4.178815    1.661217    0.969045
     34          8           0       -1.951051    1.925013    0.140297
     35          8           0       -4.005630    1.371757   -0.519432
     36          6           0       -3.158291    2.207092   -0.113307
     37          6           0       -3.580063    3.657017    0.095862
     38          6           0       -5.044724    3.949650   -0.187757
     39          1           0       -2.930739    4.271235   -0.535621
     40          1           0       -3.322774    3.918130    1.126804
     41          1           0       -5.301176    3.724233   -1.224788
     42          1           0       -5.266595    5.004039   -0.009414
     43          1           0       -5.699152    3.356290    0.454075
 ---------------------------------------------------------------------

 SCF Done:  E(RM062X) =  -1516.19606075     A.U. after    2 cycles

 The electronic state is 1-A.
 Alpha  occ. eigenvalues --  -25.28720 -25.28650 -25.28499 -25.28401 -25.28357
 Alpha  occ. eigenvalues --  -25.28037 -19.59438 -19.57932 -19.57659 -14.77539
 Alpha  occ. eigenvalues --  -14.75637 -10.81459 -10.81187 -10.67695 -10.63890
 Alpha  occ. eigenvalues --  -10.61273 -10.59399 -10.58329 -10.56717 -10.56521
 Alpha  occ. eigenvalues --  -10.56150 -10.55400 -10.52703 -10.52468 -10.51555
 Alpha  occ. eigenvalues --  -10.51350  -1.48224  -1.47665  -1.38793  -1.38416
 Alpha  occ. eigenvalues --   -1.38277  -1.37957  -1.17974  -1.16712  -1.06889
 Alpha  occ. eigenvalues --   -1.06042  -1.02687  -0.99174  -0.90188  -0.89755
 Alpha  occ. eigenvalues --   -0.87301  -0.85749  -0.83072  -0.81098  -0.77735
 Alpha  occ. eigenvalues --   -0.74708  -0.73613  -0.72235  -0.70578  -0.70555
 Alpha  occ. eigenvalues --   -0.70273  -0.69787  -0.69421  -0.68143  -0.67634
 Alpha  occ. eigenvalues --   -0.63989  -0.62959  -0.59777  -0.58976  -0.58946
 Alpha  occ. eigenvalues --   -0.58792  -0.58119  -0.58015  -0.55940  -0.55551
 Alpha  occ. eigenvalues --   -0.54967  -0.54620  -0.54260  -0.53600  -0.53293
 Alpha  occ. eigenvalues --   -0.53051  -0.52898  -0.52581  -0.52197  -0.51973
 Alpha  occ. eigenvalues --   -0.51948  -0.51123  -0.50323  -0.49970  -0.48966
 Alpha  occ. eigenvalues --   -0.47498  -0.46590  -0.46180  -0.45061  -0.45010
 Alpha  occ. eigenvalues --   -0.44328  -0.43175  -0.41790  -0.41466  -0.39794
 Alpha  occ. eigenvalues --   -0.39545  -0.39451  -0.38704  -0.35912  -0.34021
 Alpha  occ. eigenvalues --   -0.33642  -0.32947  -0.32538  -0.32398  -0.27950
 Alpha virt. eigenvalues --   -0.01516  -0.00097   0.01388   0.02320   0.02648
 Alpha virt. eigenvalues --    0.03196   0.03340   0.03619   0.04260   0.04647
 Alpha virt. eigenvalues --    0.04776   0.04943   0.05449   0.05684   0.06483

 Mulliken charges:
               1
     1  C   -0.656235
     2  N   -0.426219
     3  C    0.236594
     4  O   -0.530406
     5  N   -0.435563
     6  C   -0.561631
     7  C   -0.077756
     8  C   -1.166931
     9  C   -0.354716
    10  C   -0.176888
    11  C   -0.517876
    12  C   -0.556083
    13  C   -0.184827
    14  H    0.483063
    15  H    0.473748
    16  H    0.271730
    17  H    0.274284
    18  H    0.273196
    19  H    0.275607
    20  H    0.269091
    21  H    0.280136
    22  H    0.269238
    23  H    0.362472
    24  H    0.316020
    25  C    0.963219
    26  C    1.039985
    27  H    0.315932
    28  F   -0.092007
    29  F   -0.130821
    30  F   -0.061988
    31  F   -0.126491
    32  F   -0.052130
    33  F   -0.082494
    34  O   -0.617804
    35  O   -0.583312
    36  C    0.209768
    37  C   -0.280120
    38  C   -1.027643
    39  H    0.284899
    40  H    0.286170
    41  H    0.270160
    42  H    0.274898
    43  H    0.269735
 Sum of Mulliken charges =  -1.00000

 Dipole moment (field-independent basis, Debye):
    X=              2.4656    Y=             -1.5754    Z=              0.1460  Tot=              2.9295
 Quadrupole moment (field-independent basis, Debye-Ang):
   XX=           -206.8013   YY=           -172.4152   ZZ=           -157.3429
   XY=             -0.0917   XZ=             -5.6322   YZ=              3.5461

  Exact polarizability: 366.517   7.337 296.690   3.858   5.677 202.999
 Approx polarizability: 291.136   2.953 253.858   3.502   4.785 183.242

                      1                      2                      3
                      A                      A                      A
 Frequencies --     12.2613                17.6591                27.4824
 Red. masses --      6.7169                 5.1595                 4.4246
 Frc consts  --      0.0006                 0.0009                 0.0020
 IR Inten    --      0.7303                 1.0522                 1.7599

                      4                      5                      6
                      A                      A                      A
 Frequencies --     28.3902                41.2981                43.8506
 Red. masses --      3.4179                 4.3870                 4.4358
 Frc consts  --      0.0016                 0.0044                 0.0050
 IR Inten    --      0.3189                 4.3633                 5.9278

                      7                      8                      9
                      A                      A                      A
 Frequencies --     57.5499                58.6408                66.9930
 Red. masses --      2.8941                 3.8773                 5.1280
 Frc consts  --      0.0056                 0.0079                 0.0136
 IR Inten    --      6.5316                 1.2187                 2.3918

                     10                     11                     12
                      A                      A                      A
 Frequencies --     69.5808                72.5347                90.6458
 Red. masses --      5.8659                 4.9448                 4.9340
 Frc consts  --      0.0167                 0.0153                 0.0239
 IR Inten    --      0.5569                15.0756                11.3507

                     13                     14                     15
                      A                      A                      A
 Frequencies --     93.9313               106.1775               128.6398
 Red. masses --     18.6250                 4.8021                 8.4137
 Frc consts  --      0.0968                 0.0319                 0.0820
 IR Inten    --      0.1350                 9.2771                25.3192

                     16                     17                     18
                      A                      A                      A
 Frequencies --    140.7909               160.3031               164.8031
 Red. masses --      6.8485                 3.6796                 8.2880
 Frc consts  --      0.0800                 0.0557                 0.1326
 IR Inten    --      1.8022                17.1838                 1.7749

                     19                     20                     21
                      A                      A                      A
 Frequencies --    168.9849               202.0124               231.3184
 Red. masses --      5.2559                 8.0792                 7.7196
 Frc consts  --      0.0884                 0.1943                 0.2434
 IR Inten    --     12.4569                 0.4608                 2.4318

                     22                     23                     24
                      A                      A                      A
 Frequencies --    240.5719               248.8740               249.9204
 Red. masses --      1.1553                 6.2398                 1.0944
 Frc consts  --      0.0394                 0.2277                 0.0403
 IR Inten    --      0.1475                 3.9959                 1.1964

                     25                     26                     27
                      A                      A                      A
 Frequencies --    260.6490               303.1762               318.7352
 Red. masses --     10.9801                 3.8553                 7.6770
 Frc consts  --      0.4395                 0.2088                 0.4595
 IR Inten    --     13.8524                10.8081                 0.2328

                     28                     29                     30
                      A                      A                      A
 Frequencies --    339.9136               349.2323               353.9854
 Red. masses --     14.4160                 4.7292                 6.1964
 Frc consts  --      0.9814                 0.3398                 0.4575
 IR Inten    --      0.3148                18.9448                 1.4009

                     31                     32                     33
                      A                      A                      A
 Frequencies --    421.9385               427.3819               471.2974
 Red. masses --      5.3559                 7.4546                 7.3662
 Frc consts  --      0.5618                 0.8022                 0.9640
 IR Inten    --     10.6138                31.5694                 3.2566

                     34                     35                     36
                      A                      A                      A
 Frequencies --    481.2626               506.0993               522.8566
 Red. masses --      6.2162                 5.5766                 5.6714
 Frc consts  --      0.8483                 0.8416                 0.9135
 IR Inten    --      3.3877                42.1467                30.9223

                     37                     38                     39
                      A                      A                      A
 Frequencies --    538.8632               574.2340               580.7595
 Red. masses --     11.0455                14.6204                 1.8849
 Frc consts  --      1.8897                 2.8405                 0.3746
 IR Inten    --      4.8006                 3.0486                 2.4503

                     40                     41                     42
                      A                      A                      A
 Frequencies --    604.4722               622.5394               651.2537
 Red. masses --      5.5670                 8.1221                 2.1241
 Frc consts  --      1.1985                 1.8546                 0.5308
 IR Inten    --     24.4759                 1.9538                98.2386

                     43                     44                     45
                      A                      A                      A
 Frequencies --    654.6805               661.4333               666.7593
 Red. masses --      4.9253                 2.6251                 4.2089
 Frc consts  --      1.2438                 0.6766                 1.1025
 IR Inten    --     26.6029                62.8591                31.1207

                     46                     47                     48
                      A                      A                      A
 Frequencies --    676.3862               754.1674               758.1658
 Red. masses --      5.0001                 4.4365                 1.1285
 Frc consts  --      1.3478                 1.4867                 0.3822
 IR Inten    --     24.5236                 8.4481                20.1704

                     49                     50                     51
                      A                      A                      A
 Frequencies --    762.6684               775.3857               781.8146
 Red. masses --      6.0051                 2.8653                 9.0475
 Frc consts  --      2.0580                 1.0150                 3.2583
 IR Inten    --     17.0818               101.9391                10.3378

                     52                     53                     54
                      A                      A                      A
 Frequencies --    800.9990               821.0514               824.1809
 Red. masses --      2.1948                 1.7750                 2.1940
 Frc consts  --      0.8297                 0.7050                 0.8781
 IR Inten    --     51.0569                 2.7368               145.5510

                     55                     56                     57
                      A                      A                      A
 Frequencies --    867.1336               888.2162               906.6059
 Red. masses --      1.4583                 3.9900                 1.1572
 Frc consts  --      0.6461                 1.8546                 0.5604
 IR Inten    --     67.6735                45.7020                 2.4423

                     58                     59                     60
                      A                      A                      A
 Frequencies --    919.2196               924.1843               946.1731
 Red. masses --      2.3355                 1.5230                 2.8212
 Frc consts  --      1.1627                 0.7664                 1.4881
 IR Inten    --     31.4534                65.9430                16.4484

                     61                     62                     63
                      A                      A                      A
 Frequencies --   1002.8872              1026.0069              1043.5655
 Red. masses --      1.3349                 1.6631                 6.6295
 Frc consts  --      0.7910                 1.0315                 4.2537
 IR Inten    --      5.6555                14.9928                68.8446

                     64                     65                     66
                      A                      A                      A
 Frequencies --   1052.0362              1082.1426              1110.4424
 Red. masses --      4.2044                 2.7020                 1.9663
 Frc consts  --      2.7417                 1.8642                 1.4285
 IR Inten    --     49.5235                44.9554                11.1026

                     67                     68                     69
                      A                      A                      A
 Frequencies --   1111.2562              1121.0191              1136.9869
 Red. masses --      2.0844                 3.7999                 9.9774
 Frc consts  --      1.5166                 2.8135                 7.5994
 IR Inten    --     11.3757               330.1633               140.8792

                     70                     71                     72
                      A                      A                      A
 Frequencies --   1144.4280              1152.9503              1161.7675
 Red. masses --      3.3280                 9.5250                 2.9307
 Frc consts  --      2.5681                 7.4599                 2.3306
 IR Inten    --    167.6004               720.8209                26.3974

                     73                     74                     75
                      A                      A                      A
 Frequencies --   1178.3741              1180.7879              1191.9566
 Red. masses --      4.0152                 1.6486                 1.9455
 Frc consts  --      3.2849                 1.3543                 1.6286
 IR Inten    --     57.2317                 1.5131               359.7618

                     76                     77                     78
                      A                      A                      A
 Frequencies --   1199.0166              1284.4039              1285.7163
 Red. masses --      6.5112                 2.2771                 1.2428
 Frc consts  --      5.5152                 2.2133                 1.2104
 IR Inten    --    422.9179               773.5337                79.8015

                     79                     80                     81
                      A                      A                      A
 Frequencies --   1296.5800              1309.3276              1328.2504
 Red. masses --      1.1664                 2.5011                 1.8248
 Frc consts  --      1.1553                 2.5263                 1.8968
 IR Inten    --      0.5202               553.2362               114.8361

                     82                     83                     84
                      A                      A                      A
 Frequencies --   1332.2003              1333.0078              1343.0809
 Red. masses --      1.8102                 1.0708                 2.6748
 Frc consts  --      1.8928                 1.1210                 2.8428
 IR Inten    --    172.9446                 1.2099               726.1423

                     85                     86                     87
                      A                      A                      A
 Frequencies --   1344.5185              1358.8333              1378.5446
 Red. masses --      2.8030                 2.2989                 3.3163
 Frc consts  --      2.9854                 2.5009                 3.7132
 IR Inten    --     21.3307                12.1721               729.3033

                     88                     89                     90
                      A                      A                      A
 Frequencies --   1416.6409              1417.9357              1427.1210
 Red. masses --      1.2675                 1.3186                 1.6871
 Frc consts  --      1.4987                 1.5620                 2.0244
 IR Inten    --      2.9313                34.3241                34.6939

                     91                     92                     93
                      A                      A                      A
 Frequencies --   1448.0169              1462.6662              1464.1383
 Red. masses --      1.6563                 2.0441                 4.0249
 Frc consts  --      2.0461                 2.5766                 5.0836
 IR Inten    --    247.3917               262.2449                36.1900

                     94                     95                     96
                      A                      A                      A
 Frequencies --   1483.7338              1500.5222              1500.5384
 Red. masses --      1.0607                 1.0385                 1.0377
 Frc consts  --      1.3758                 1.3776                 1.3766
 IR Inten    --      5.7943                15.6042                11.0868

                     97                     98                     99
                      A                      A                      A
 Frequencies --   1506.7336              1507.9471              1527.7331
 Red. masses --      1.0941                 1.0785                 1.1099
 Frc consts  --      1.4634                 1.4450                 1.5263
 IR Inten    --     65.4007                 1.0189                61.5231

                    100                    101                    102
                      A                      A                      A
 Frequencies --   1539.5700              1576.9988              1600.1616
 Red. masses --      6.5025                 3.2875                 3.5525
 Frc consts  --      9.0809                 4.8170                 5.3593
 IR Inten    --    896.5082               200.4772               737.4486

                    103                    104                    105
                      A                      A                      A
 Frequencies --   1616.1977              1662.3367              1691.6888
 Red. masses --      1.9095                 6.8210                 5.0440
 Frc consts  --      2.9387                11.1055                 8.5049
 IR Inten    --   1241.0196               258.1786                98.1881

                    106                    107                    108
                      A                      A                      A
 Frequencies --   1731.4558              3063.2636              3067.1673
 Red. masses --      1.7466                 1.0587                 1.0392
 Frc consts  --      3.0852                 5.8532                 5.7603
 IR Inten    --    520.5671                14.1644                23.3452

                    109                    110                    111
                      A                      A                      A
 Frequencies --   3070.9905              3074.7984              3078.4878
 Red. masses --      1.0581                 1.0368                 1.0621
 Frc consts  --      5.8794                 5.7752                 5.9305
 IR Inten    --    118.3913                45.6724                17.5612

                    112                    113                    114
                      A                      A                      A
 Frequencies --   3093.2545              3111.3415              3112.7582
 Red. masses --      1.1037                 1.1014                 1.1063
 Frc consts  --      6.2221                 6.2818                 6.3156
 IR Inten    --      6.5224                 6.6276                42.6558

                    115                    116                    117
                      A                      A                      A
 Frequencies --   3136.0626              3143.4586              3143.8367
 Red. masses --      1.1042                 1.1026                 1.1024
 Frc consts  --      6.3981                 6.4191                 6.4195
 IR Inten    --     97.1868                49.4005                47.0478

                    118                    119                    120
                      A                      A                      A
 Frequencies --   3147.9567              3234.9869              3240.6467
 Red. masses --      1.1037                 1.0910                 1.0890
 Frc consts  --      6.4442                 6.7269                 6.7382
 IR Inten    --     56.1144               252.7655               954.4711

                    121                    122                    123
                      A                      A                      A
 Frequencies --   3243.2074              3292.3802              3375.7291
 Red. masses --      1.0917                 1.0932                 1.0853
 Frc consts  --      6.7653                 6.9817                 7.2870
 IR Inten    --     33.3200                 5.2026              1195.4815

 - Thermochemistry -
 -------------------
 Temperature   298.150 Kelvin.  Pressure   1.00000 Atm.
 Atom     1 has atomic number  6 and mass  12.00000

 Molecular mass:   387.11434 amu.
 Principal axes and moments of inertia in atomic units:
                           1         2         3
     Eigenvalues --  5987.06914********************
           X            1.00000  -0.00198  -0.00087
           Y            0.00198   1.00000  -0.00174
           Z            0.00088   0.00174   1.00000
 This molecule is an asymmetric top.
 Rotational symmetry number  1.
 Warning -- assumption of classical behavior for rotation
           may cause significant error
 Rotational temperatures (Kelvin)      0.01447     0.00428     0.00340
 Rotational constants (GHZ):           0.30144     0.08927     0.07094
 Zero-point vibrational energy     841235.8 (Joules/Mol)
                                  201.06018 (Kcal/Mol)
 Warning -- explicit consideration of  40 degrees of freedom as
           vibrations may cause significant error
 Vibrational temperatures:     17.64    25.41    39.54    40.85    59.42
          (Kelvin)             63.09    82.80    84.37    96.39   100.11
                              104.36   130.42   135.15   152.77   185.08
                              202.57   230.64   237.11   243.13   290.65
                              332.82   346.13   358.07   359.58   375.02
                              436.20   458.59   489.06   502.47   509.31
                              607.07   614.91   678.09   692.43   728.16
                              752.27   775.30   826.19   835.58   869.70
                              895.69   937.01   941.94   951.65   959.32
                              973.17  1085.08  1090.83  1097.31  1115.61
                             1124.86  1152.46  1181.31  1185.81  1247.61
                             1277.94  1304.40  1322.55  1329.69  1361.33
                             1442.93  1476.19  1501.46  1513.64  1556.96
                             1597.68  1598.85  1612.89  1635.87  1646.57
                             1658.84  1671.52  1695.42  1698.89  1714.96
                             1725.12  1847.97  1849.86  1865.49  1883.83
                             1911.05  1916.74  1917.90  1932.39  1934.46
                             1955.06  1983.42  2038.23  2040.09  2053.31
                             2083.37  2104.45  2106.57  2134.76  2158.91
                             2158.94  2167.85  2169.60  2198.06  2215.10
                             2268.95  2302.27  2325.35  2391.73  2433.96
                             2491.18  4407.35  4412.96  4418.46  4423.94
                             4429.25  4450.50  4476.52  4478.56  4512.09
                             4522.73  4523.27  4529.20  4654.42  4662.56
                             4666.25  4736.99  4856.92

 Zero-point correction=                           0.320410 (Hartree/Particle)
 Thermal correction to Energy=                    0.347424
 Thermal correction to Enthalpy=                  0.348368
 Thermal correction to Gibbs Free Energy=         0.257165
 Sum of electronic and zero-point Energies=          -1515.875651
 Sum of electronic and thermal Energies=             -1515.848637
 Sum of electronic and thermal Enthalpies=           -1515.847693
 Sum of electronic and thermal Free Energies=        -1515.938895

                     E (Thermal)             CV                S
                      KCal/Mol        Cal/Mol-Kelvin    Cal/Mol-Kelvin
 Total                  218.012             94.995            191.953
 Electronic               0.000              0.000              0.000
 Translational            0.889              2.981             43.753
 Rotational               0.889              2.981             36.375
 Vibrational            216.234             89.033            111.825
 Vibration     1          0.593              1.987              7.606
 Vibration     2          0.593              1.986              6.881
 Vibration     3          0.593              1.984              6.003
 Vibration     4          0.593              1.984              5.939
 Vibration     5          0.594              1.981              5.196
 Vibration     6          0.595              1.980              5.077
 Vibration     7          0.596              1.974              4.539
 Vibration     8          0.596              1.974              4.502
 Vibration     9          0.598              1.970              4.240
 Vibration    10          0.598              1.969              4.165
 Vibration    11          0.599              1.967              4.083
 Vibration    12          0.602              1.956              3.646
 Vibration    13          0.603              1.954              3.576
 Vibration    14          0.605              1.944              3.338
 Vibration    15          0.611              1.925              2.966
 Vibration    16          0.615              1.912              2.793
 Vibration    17          0.622              1.891              2.546
 Vibration    18          0.623              1.886              2.494
 Vibration    19          0.625              1.881              2.447
 Vibration    20          0.639              1.837              2.115
 Vibration    21          0.653              1.793              1.869
 Vibration    22          0.658              1.778              1.799
 Vibration    23          0.662              1.765              1.739
 Vibration    24          0.663              1.763              1.731
 Vibration    25          0.669              1.745              1.657
 Vibration    26          0.695              1.668              1.399
 Vibration    27          0.705              1.638              1.317
 Vibration    28          0.720              1.596              1.213
 Vibration    29          0.726              1.577              1.170
 Vibration    30          0.730              1.567              1.148
 Vibration    31          0.784              1.423              0.885
 Vibration    32          0.789              1.411              0.867
 Vibration    33          0.828              1.314              0.734
 Vibration    34          0.838              1.292              0.707
 Vibration    35          0.861              1.236              0.643
 Vibration    36          0.878              1.199              0.603
 Vibration    37          0.894              1.164              0.568
 Vibration    38          0.931              1.087              0.496
 Vibration    39          0.937              1.073              0.484
 Vibration    40          0.963              1.022              0.442

 Normal termination of Gaussian 09 at Fri Nov 15 00:35:24 2019.
