 Gaussian 09, Revision E.01,

 ----------------------------------------------------------------------
 # M062X/6-311+G* SCF=Tight INT(grid=ultrafine) OPT IOP(2/17=4) Empiric
 alDispersion=GD3 SCRF=(SMD,Solvent=n-Pentadecane) maxdisk=3221225472
 ----------------------------------------------------------------------

 ----------------------------------------------
 NM2_carboxy.M062X_6-311pGd_opt_Pentadecane_GD3
 ----------------------------------------------
 Symbolic Z-matrix:
 Charge = -1 Multiplicity = 1

 SCF Done:  E(RM062X) =  -1516.16605761     A.U. after   16 cycles
 Optimization completed.
    -- Stationary point found.
 Normal termination of Gaussian 09 at Thu Nov 14 22:09:18 2019.
 Gaussian 09:  ES64L-G09RevE.01 30-Nov-2015

 ----------------------------------------------------------------------
 # M062X/6-311+G* SCF=Tight INT(grid=ultrafine) SCRF=(SMD,Solvent=n-Pen
 tadecane) EmpiricalDispersion=GD3 Freq=Noraman maxdisk=3221225472 geom
 =check guess=read IOP(2/17=4)
 ----------------------------------------------------------------------

 ----------------------------------------------
 NM2_carboxy.M062X_6-311pGd_opt_Pentadecane_GD3
 ----------------------------------------------
 Structure from the checkpoint file:  "NM2_carboxy.M062X_6-311pGd_opt_Pentadecane_GD3.chk"
 Charge = -1 Multiplicity = 1

                         Standard orientation:
 ---------------------------------------------------------------------
 Center     Atomic      Atomic             Coordinates (Angstroms)
 Number     Number       Type             X           Y           Z
 ---------------------------------------------------------------------
      1          6           0        0.267129    0.115673   -0.077777
      2          7           0       -1.080561   -0.149082   -0.089282
      3          6           0       -1.698500   -1.394362   -0.021999
      4          8           0       -1.085178   -2.455630    0.031532
      5          7           0       -3.046423   -1.307055   -0.033892
      6          6           0       -3.863282   -2.497267    0.085664
      7          6           0       -5.309245   -2.174853   -0.267621
      8          6           0       -6.208733   -3.397021   -0.123385
      9          6           0        1.277836   -0.861741   -0.003549
     10          6           0        2.614673   -0.493007    0.006776
     11          6           0        2.996343    0.856406   -0.045262
     12          6           0        1.989028    1.817673   -0.131230
     13          6           0        0.654262    1.465500   -0.147018
     14          1           0       -1.689904    0.690490   -0.154382
     15          1           0       -3.511664   -0.390174    0.038415
     16          1           0       -3.807778   -2.904700    1.104144
     17          1           0       -3.469182   -3.268978   -0.581696
     18          1           0       -5.345789   -1.793952   -1.292910
     19          1           0       -5.664980   -1.362741    0.373545
     20          1           0       -5.878232   -4.211952   -0.774112
     21          1           0       -7.243114   -3.162587   -0.384969
     22          1           0       -6.204499   -3.772608    0.903902
     23          1           0        0.998074   -1.902422    0.039369
     24          1           0       -0.117523    2.225725   -0.208645
     25          6           0        4.420508    1.326243   -0.058072
     26          6           0        3.622392   -1.610981    0.119702
     27          1           0        2.255886    2.866017   -0.180154
     28          9           0        5.200050    0.681415    0.825884
     29          9           0        4.512870    2.634413    0.246136
     30          9           0        5.013256    1.189678   -1.261282
     31          9           0        3.098013   -2.800708   -0.203965
     32          9           0        4.103198   -1.740498    1.369527
     33          9           0        4.681801   -1.434033   -0.687250
     34          8           0       -2.491483    2.225477   -0.242579
     35          8           0       -4.406824    1.165300    0.200317
     36          6           0       -3.727397    2.195927   -0.000139
     37          6           0       -4.434569    3.555701    0.048005
     38          6           0       -5.926186    3.484867    0.338138
     39          1           0       -4.243543    4.050582   -0.909348
     40          1           0       -3.916804    4.160027    0.799579
     41          1           0       -6.445205    2.895668   -0.420143
     42          1           0       -6.372241    4.483653    0.360420
     43          1           0       -6.114972    3.004784    1.300197
 ---------------------------------------------------------------------

 SCF Done:  E(RM062X) =  -1516.16605760     A.U. after    2 cycles

 The electronic state is 1-A.
 Alpha  occ. eigenvalues --  -25.23955 -25.23790 -25.23745 -25.23725 -25.23440
 Alpha  occ. eigenvalues --  -25.23350 -19.52625 -19.50261 -19.50029 -14.71150
 Alpha  occ. eigenvalues --  -14.69058 -10.76509 -10.76470 -10.60992 -10.56395
 Alpha  occ. eigenvalues --  -10.55819 -10.54314 -10.53287 -10.51943 -10.51141
 Alpha  occ. eigenvalues --  -10.50789 -10.50307 -10.48240 -10.48178 -10.46987
 Alpha  occ. eigenvalues --  -10.46628  -1.43362  -1.42909  -1.33942  -1.33573
 Alpha  occ. eigenvalues --   -1.33451  -1.33227  -1.11485  -1.09324  -1.00095
 Alpha  occ. eigenvalues --   -0.99390  -0.96619  -0.93843  -0.85077  -0.84593
 Alpha  occ. eigenvalues --   -0.82627  -0.80253  -0.77896  -0.76258  -0.72939
 Alpha  occ. eigenvalues --   -0.69562  -0.68821  -0.66650  -0.65892  -0.65682
 Alpha  occ. eigenvalues --   -0.65446  -0.64983  -0.63932  -0.63176  -0.61472
 Alpha  occ. eigenvalues --   -0.59353  -0.56937  -0.54320  -0.54122  -0.53903
 Alpha  occ. eigenvalues --   -0.53342  -0.53238  -0.52006  -0.50779  -0.50129
 Alpha  occ. eigenvalues --   -0.50059  -0.49797  -0.48820  -0.48673  -0.47779
 Alpha  occ. eigenvalues --   -0.47466  -0.47361  -0.47227  -0.46975  -0.46571
 Alpha  occ. eigenvalues --   -0.46368  -0.45491  -0.44758  -0.43762  -0.43243
 Alpha  occ. eigenvalues --   -0.42691  -0.41576  -0.40202  -0.40095  -0.39842
 Alpha  occ. eigenvalues --   -0.38927  -0.37734  -0.37465  -0.36177  -0.35429
 Alpha  occ. eigenvalues --   -0.34746  -0.34103  -0.33454  -0.28916  -0.28588
 Alpha  occ. eigenvalues --   -0.26147  -0.25744  -0.25202  -0.25047  -0.22019
 Alpha virt. eigenvalues --    0.03471   0.05238   0.05646   0.05984   0.06507
 Alpha virt. eigenvalues --    0.07147   0.07432   0.07699   0.08000   0.08485
 Alpha virt. eigenvalues --    0.08655   0.09098   0.09575   0.09705   0.10242

 Mulliken charges:
               1
     1  C   -0.678537
     2  N   -0.452082
     3  C    0.140447
     4  O   -0.408615
     5  N   -0.346351
     6  C   -0.468987
     7  C   -0.127807
     8  C   -1.098039
     9  C    0.143022
    10  C   -0.791252
    11  C   -1.274298
    12  C    0.133521
    13  C   -0.126493
    14  H    0.467167
    15  H    0.451119
    16  H    0.251423
    17  H    0.242517
    18  H    0.267800
    19  H    0.276768
    20  H    0.255420
    21  H    0.263831
    22  H    0.256804
    23  H    0.341521
    24  H    0.343692
    25  C    1.136335
    26  C    0.888772
    27  H    0.284742
    28  F   -0.086751
    29  F   -0.127708
    30  F   -0.056070
    31  F   -0.112493
    32  F   -0.051173
    33  F   -0.084016
    34  O   -0.496529
    35  O   -0.450299
    36  C    0.010378
    37  C   -0.172911
    38  C   -1.018261
    39  H    0.254572
    40  H    0.253959
    41  H    0.260665
    42  H    0.244947
    43  H    0.259252
 Sum of Mulliken charges =  -1.00000

 Dipole moment (field-independent basis, Debye):
    X=              1.6657    Y=              0.1249    Z=             -0.0703  Tot=              1.6718
 Quadrupole moment (field-independent basis, Debye-Ang):
   XX=           -225.3955   YY=           -175.1375   ZZ=           -157.3480
   XY=             12.4605   XZ=              0.7981   YZ=              1.0156

  Exact polarizability: 323.136  19.352 249.411  -2.065  -4.827 152.178
 Approx polarizability: 294.281  14.233 262.122  -1.857  -5.733 183.546

                      1                      2                      3
                      A                      A                      A
 Frequencies --      8.9108                21.4934                26.1882
 Red. masses --      1.8222                 6.6491                 5.5952
 Frc consts  --      0.0001                 0.0018                 0.0023
 IR Inten    --      0.3614                 0.0214                 0.5640

                      4                      5                      6
                      A                      A                      A
 Frequencies --     41.2839                48.9685                52.8047
 Red. masses --      4.9412                 5.3778                 4.4742
 Frc consts  --      0.0050                 0.0076                 0.0074
 IR Inten    --      2.2192                 0.9234                 2.0986

                      7                      8                      9
                      A                      A                      A
 Frequencies --     54.2737                58.7833                72.0858
 Red. masses --      4.5418                 7.1406                 4.3734
 Frc consts  --      0.0079                 0.0145                 0.0134
 IR Inten    --      2.3223                 1.5193                 1.7014

                     10                     11                     12
                      A                      A                      A
 Frequencies --     74.9044                77.0215                96.7831
 Red. masses --      3.0630                 4.5698                18.2015
 Frc consts  --      0.0101                 0.0160                 0.1005
 IR Inten    --      4.2908                 1.3492                 0.0922

                     13                     14                     15
                      A                      A                      A
 Frequencies --    100.5634               117.8500               125.2535
 Red. masses --      6.1889                 5.8694                 7.0285
 Frc consts  --      0.0369                 0.0480                 0.0650
 IR Inten    --      6.0591                 4.5704                11.2679

                     16                     17                     18
                      A                      A                      A
 Frequencies --    145.7047               166.8272               172.6764
 Red. masses --      7.8340                 4.8224                13.2202
 Frc consts  --      0.0980                 0.0791                 0.2322
 IR Inten    --      1.0228                18.9375                 0.6089

                     19                     20                     21
                      A                      A                      A
 Frequencies --    196.5830               208.3141               217.0026
 Red. masses --      3.5109                 7.2224                 1.1387
 Frc consts  --      0.0799                 0.1847                 0.0316
 IR Inten    --     10.4896                 0.9151                 0.6891

                     22                     23                     24
                      A                      A                      A
 Frequencies --    235.2641               238.4943               243.6710
 Red. masses --      2.3386                 2.6002                 3.4222
 Frc consts  --      0.0763                 0.0871                 0.1197
 IR Inten    --      0.2294                 3.1726                 6.2535

                     25                     26                     27
                      A                      A                      A
 Frequencies --    270.1553               295.1330               325.1941
 Red. masses --      6.8530                 3.9731                 8.3589
 Frc consts  --      0.2947                 0.2039                 0.5208
 IR Inten    --      5.4038                15.4896                 0.7443

                     28                     29                     30
                      A                      A                      A
 Frequencies --    343.5931               348.5259               388.7254
 Red. masses --     14.1750                 4.9130                 8.2682
 Frc consts  --      0.9860                 0.3516                 0.7361
 IR Inten    --      0.1680                14.3350                 2.1638

                     31                     32                     33
                      A                      A                      A
 Frequencies --    400.6058               422.9609               467.7662
 Red. masses --      5.9452                 5.5841                 7.3301
 Frc consts  --      0.5621                 0.5886                 0.9450
 IR Inten    --     32.1835                 1.4979                 9.8596

                     34                     35                     36
                      A                      A                      A
 Frequencies --    481.7809               509.5262               520.7337
 Red. masses --      5.9232                 5.9580                 5.7030
 Frc consts  --      0.8100                 0.9114                 0.9111
 IR Inten    --      1.8964                45.8333                21.0625

                     37                     38                     39
                      A                      A                      A
 Frequencies --    542.8354               574.0000               584.6108
 Red. masses --     11.8536                14.5828                 1.9126
 Frc consts  --      2.0580                 2.8308                 0.3851
 IR Inten    --      2.2418                 2.9102                 0.3779

                     40                     41                     42
                      A                      A                      A
 Frequencies --    607.7597               622.2674               658.7475
 Red. masses --      6.2962                 8.7310                 5.8651
 Frc consts  --      1.3702                 1.9919                 1.4996
 IR Inten    --     10.5147                 0.7892                33.3302

                     43                     44                     45
                      A                      A                      A
 Frequencies --    660.6267               663.8181               682.4574
 Red. masses --      5.4821                 5.6517                 9.3877
 Frc consts  --      1.4096                 1.4673                 2.5761
 IR Inten    --     27.5046                 3.4665                19.7202

                     46                     47                     48
                      A                      A                      A
 Frequencies --    755.5704               756.8356               765.9316
 Red. masses --      1.1209                 4.7557                 3.3971
 Frc consts  --      0.3770                 1.6050                 1.1742
 IR Inten    --      3.9352                 7.7556                26.2564

                     49                     50                     51
                      A                      A                      A
 Frequencies --    775.6045               781.9258               798.7182
 Red. masses --      9.1733                 5.0815                 7.6142
 Frc consts  --      3.2513                 1.8305                 2.8619
 IR Inten    --      6.9523                28.0332                 6.6665

                     52                     53                     54
                      A                      A                      A
 Frequencies --    816.3452               824.3856               878.7557
 Red. masses --      1.5829                 1.4639                 1.3951
 Frc consts  --      0.6215                 0.5862                 0.6347
 IR Inten    --     10.1122                18.8223                16.4423

                     55                     56                     57
                      A                      A                      A
 Frequencies --    890.8692               901.2218               923.5138
 Red. masses --      3.7501                 1.1868                 1.8326
 Frc consts  --      1.7536                 0.5679                 0.9209
 IR Inten    --     52.0173                 4.6125                10.4684

                     58                     59                     60
                      A                      A                      A
 Frequencies --    947.2002               957.6787               960.5721
 Red. masses --      1.3922                 4.7835                 1.1041
 Frc consts  --      0.7359                 2.5849                 0.6003
 IR Inten    --     47.0983                 7.2799               117.2304

                     61                     62                     63
                      A                      A                      A
 Frequencies --   1016.5992              1022.0540              1045.2640
 Red. masses --      1.3011                 1.6669                 6.6209
 Frc consts  --      0.7923                 1.0259                 4.2620
 IR Inten    --      0.9460                 5.3646                43.6248

                     64                     65                     66
                      A                      A                      A
 Frequencies --   1048.4096              1078.5684              1107.7177
 Red. masses --      4.0650                 2.6546                 1.8257
 Frc consts  --      2.6325                 1.8194                 1.3199
 IR Inten    --     45.6475                23.8375                 1.0929

                     67                     68                     69
                      A                      A                      A
 Frequencies --   1111.1623              1127.8671              1150.8619
 Red. masses --      2.3117                 3.5866                 5.6689
 Frc consts  --      1.6817                 2.6881                 4.4238
 IR Inten    --      5.0690               243.4915                82.9937

                     70                     71                     72
                      A                      A                      A
 Frequencies --   1153.9142              1161.7388              1178.1803
 Red. masses --      2.9348                 5.2541                 2.1705
 Frc consts  --      2.3024                 4.1780                 1.7751
 IR Inten    --     16.1593                94.0177                33.3412

                     73                     74                     75
                      A                      A                      A
 Frequencies --   1183.7696              1187.8479              1215.5564
 Red. masses --      9.6148                 2.7697                 2.4149
 Frc consts  --      7.9383                 2.3026                 2.1023
 IR Inten    --    590.6214                15.3318               127.9333

                     76                     77                     78
                      A                      A                      A
 Frequencies --   1218.9544              1280.7670              1290.2555
 Red. masses --      2.9867                 1.2016                 1.1829
 Frc consts  --      2.6147                 1.1613                 1.1603
 IR Inten    --    466.0068                10.0509                 0.3575

                     79                     80                     81
                      A                      A                      A
 Frequencies --   1297.8270              1310.2840              1319.9273
 Red. masses --      2.8461                 1.7205                 3.3891
 Frc consts  --      2.8245                 1.7404                 3.4789
 IR Inten    --    392.4733               339.0862               332.2844

                     82                     83                     84
                      A                      A                      A
 Frequencies --   1328.9508              1330.1287              1333.1838
 Red. masses --      1.5692                 1.5001                 1.5005
 Frc consts  --      1.6328                 1.5637                 1.5714
 IR Inten    --     65.9884                34.4863               169.2349

                     85                     86                     87
                      A                      A                      A
 Frequencies --   1349.0010              1365.5717              1403.1723
 Red. masses --      2.4952                 2.3486                 4.4454
 Frc consts  --      2.6753                 2.5804                 5.1569
 IR Inten    --    875.2974               113.4635               395.4037

                     88                     89                     90
                      A                      A                      A
 Frequencies --   1421.2902              1423.1326              1429.6524
 Red. masses --      1.3226                 1.3389                 1.5649
 Frc consts  --      1.5741                 1.5977                 1.8845
 IR Inten    --     18.0298                 8.9725                10.4070

                     91                     92                     93
                      A                      A                      A
 Frequencies --   1462.2287              1478.1012              1484.7218
 Red. masses --      3.1832                 1.3015                 4.7807
 Frc consts  --      4.0100                 1.6754                 6.2092
 IR Inten    --    384.1683                49.7139               151.6077

                     94                     95                     96
                      A                      A                      A
 Frequencies --   1504.1616              1508.8717              1515.6309
 Red. masses --      1.0613                 1.0385                 1.0886
 Frc consts  --      1.4147                 1.3930                 1.4734
 IR Inten    --      6.4845                 8.9468                54.9725

                     97                     98                     99
                      A                      A                      A
 Frequencies --   1517.5107              1520.9131              1536.2669
 Red. masses --      1.0406                 1.0710                 1.0878
 Frc consts  --      1.4119                 1.4597                 1.5127
 IR Inten    --     10.4894                 2.1699                10.8119

                    100                    101                    102
                      A                      A                      A
 Frequencies --   1576.2181              1614.1381              1634.8465
 Red. masses --      2.9434                 3.4688                 3.1476
 Frc consts  --      4.3085                 5.3249                 4.9566
 IR Inten    --    103.4665                19.4290                35.5267

                    103                    104                    105
                      A                      A                      A
 Frequencies --   1670.5518              1680.5911              1711.0694
 Red. masses --      4.8086                 2.6765                 2.9955
 Frc consts  --      7.9066                 4.4540                 5.1672
 IR Inten    --   1396.6306               197.2338               353.3718

                    106                    107                    108
                      A                      A                      A
 Frequencies --   1786.1669              3030.3514              3056.2748
 Red. masses --      2.6476                 1.0704                 1.0929
 Frc consts  --      4.9767                 5.7913                 6.0148
 IR Inten    --    457.1151                70.7341              1344.8911

                    109                    110                    111
                      A                      A                      A
 Frequencies --   3060.1418              3065.4361              3073.2043
 Red. masses --      1.0371                 1.0451                 1.0594
 Frc consts  --      5.7218                 5.7863                 5.8953
 IR Inten    --     44.2746                10.8655                19.7617

                    112                    113                    114
                      A                      A                      A
 Frequencies --   3076.0288              3092.6474              3104.2208
 Red. masses --      1.0615                 1.0931                 1.1014
 Frc consts  --      5.9179                 6.1601                 6.2530
 IR Inten    --     27.5035                34.3640                11.1285

                    115                    116                    117
                      A                      A                      A
 Frequencies --   3110.5557              3132.1205              3132.4429
 Red. masses --      1.1019                 1.1035                 1.0985
 Frc consts  --      6.2814                 6.3780                 6.3504
 IR Inten    --      3.7563                78.7006                46.0306

                    118                    119                    120
                      A                      A                      A
 Frequencies --   3133.5342              3150.2208              3212.3381
 Red. masses --      1.1016                 1.1028                 1.0928
 Frc consts  --      6.3729                 6.4481                 6.6440
 IR Inten    --     41.1675                41.5166                 4.3923

                    121                    122                    123
                      A                      A                      A
 Frequencies --   3242.8148              3243.0258              3286.1080
 Red. masses --      1.0897                 1.0928                 1.0916
 Frc consts  --      6.7517                 6.7717                 6.9451
 IR Inten    --   1456.3311                20.9102                25.1919

 - Thermochemistry -
 -------------------
 Temperature   298.150 Kelvin.  Pressure   1.00000 Atm.
 Atom     1 has atomic number  6 and mass  12.00000

 Molecular mass:   387.11434 amu.
 Principal axes and moments of inertia in atomic units:
                           1         2         3
     Eigenvalues --  6003.96085********************
           X            0.99999   0.00395  -0.00060
           Y           -0.00395   0.99999   0.00367
           Z            0.00062  -0.00367   0.99999
 This molecule is an asymmetric top.
 Rotational symmetry number  1.
 Warning -- assumption of classical behavior for rotation
           may cause significant error
 Rotational temperatures (Kelvin)      0.01443     0.00416     0.00332
 Rotational constants (GHZ):           0.30059     0.08659     0.06913
 Zero-point vibrational energy     844585.8 (Joules/Mol)
                                  201.86085 (Kcal/Mol)
 Warning -- explicit consideration of  40 degrees of freedom as
           vibrations may cause significant error
 Vibrational temperatures:     12.82    30.92    37.68    59.40    70.45
          (Kelvin)             75.97    78.09    84.58   103.72   107.77
                              110.82   139.25   144.69   169.56   180.21
                              209.64   240.03   248.44   282.84   299.72
                              312.22   338.49   343.14   350.59   388.69
                              424.63   467.88   494.35   501.45   559.29
                              576.38   608.55   673.01   693.17   733.09
                              749.22   781.02   825.86   841.12   874.43
                              895.30   947.79   950.49   955.09   981.90
                             1087.10  1088.92  1102.00  1115.92  1125.02
                             1149.18  1174.54  1186.11  1264.33  1281.76
                             1296.66  1328.73  1362.81  1377.88  1382.05
                             1462.66  1470.51  1503.90  1508.43  1551.82
                             1593.76  1598.71  1622.75  1655.83  1660.22
                             1671.48  1695.14  1703.18  1709.05  1748.91
                             1753.80  1842.74  1856.39  1867.28  1885.20
                             1899.08  1912.06  1913.76  1918.15  1940.91
                             1964.75  2018.85  2044.92  2047.57  2056.95
                             2103.82  2126.66  2136.18  2164.15  2170.93
                             2180.65  2183.36  2188.25  2210.34  2267.82
                             2322.38  2352.18  2403.55  2417.99  2461.84
                             2569.89  4359.99  4397.29  4402.86  4410.47
                             4421.65  4425.71  4449.62  4466.28  4475.39
                             4506.42  4506.88  4508.45  4532.46  4621.83
                             4665.68  4665.99  4727.97

 Zero-point correction=                           0.321686 (Hartree/Particle)
 Thermal correction to Energy=                    0.348392
 Thermal correction to Enthalpy=                  0.349336
 Thermal correction to Gibbs Free Energy=         0.259326
 Sum of electronic and zero-point Energies=          -1515.844372
 Sum of electronic and thermal Energies=             -1515.817665
 Sum of electronic and thermal Enthalpies=           -1515.816721
 Sum of electronic and thermal Free Energies=        -1515.906732

                     E (Thermal)             CV                S
                      KCal/Mol        Cal/Mol-Kelvin    Cal/Mol-Kelvin
 Total                  218.619             94.159            189.444
 Electronic               0.000              0.000              0.000
 Translational            0.889              2.981             43.753
 Rotational               0.889              2.981             36.433
 Vibrational            216.842             88.198            109.257
 Vibration     1          0.593              1.987              8.240
 Vibration     2          0.593              1.985              6.491
 Vibration     3          0.593              1.985              6.099
 Vibration     4          0.594              1.981              5.197
 Vibration     5          0.595              1.978              4.859
 Vibration     6          0.596              1.976              4.709
 Vibration     7          0.596              1.976              4.655
 Vibration     8          0.596              1.974              4.498
 Vibration     9          0.598              1.967              4.096
 Vibration    10          0.599              1.966              4.020
 Vibration    11          0.599              1.964              3.965
 Vibration    12          0.603              1.951              3.518
 Vibration    13          0.604              1.949              3.443
 Vibration    14          0.608              1.935              3.135
 Vibration    15          0.610              1.928              3.018
 Vibration    16          0.617              1.907              2.728
 Vibration    17          0.624              1.883              2.471
 Vibration    18          0.626              1.876              2.406
 Vibration    19          0.636              1.845              2.165
 Vibration    20          0.642              1.828              2.058
 Vibration    21          0.646              1.815              1.984
 Vibration    22          0.655              1.787              1.838
 Vibration    23          0.656              1.782              1.814
 Vibration    24          0.659              1.773              1.776
 Vibration    25          0.674              1.728              1.595
 Vibration    26          0.689              1.683              1.444
 Vibration    27          0.709              1.625              1.284
 Vibration    28          0.722              1.588              1.195
 Vibration    29          0.726              1.578              1.173
 Vibration    30          0.757              1.494              1.005
 Vibration    31          0.766              1.469              0.960
 Vibration    32          0.785              1.420              0.882
 Vibration    33          0.825              1.322              0.744
 Vibration    34          0.838              1.290              0.705
 Vibration    35          0.865              1.229              0.635
 Vibration    36          0.876              1.204              0.608
 Vibration    37          0.898              1.155              0.559
 Vibration    38          0.930              1.087              0.497
 Vibration    39          0.942              1.065              0.477
 Vibration    40          0.967              1.015              0.437

 Optimization completed on the basis of negligible forces.
    -- Stationary point found.
 Normal termination of Gaussian 09 at Fri Nov 15 00:04:49 2019.
