 Gaussian 09, Revision E.01,

 ----------------------------------------------------------------------
 # M062X/6-311+G* SCF=Tight INT(grid=ultrafine) OPT IOP(2/17=4) Empiric
 alDispersion=GD3 SCRF=(SMD,Solvent=h2o) maxdisk=3221225472
 ----------------------------------------------------------------------

 ----------------------------------------
 NM2_carboxy.M062X_6-311pGd_opt_water_GD3
 ----------------------------------------
 Symbolic Z-matrix:
 Charge = -1 Multiplicity = 1

 SCF Done:  E(RM062X) =  -1516.19605361     A.U. after   15 cycles
 SCF Done:  E(RM062X) =  -1516.19605360     A.U. after    9 cycles
 SCF Done:  E(RM062X) =  -1516.19605362     A.U. after    9 cycles
 Optimization completed.
    -- Stationary point found.
 Normal termination of Gaussian 09 at Thu Nov 14 22:21:48 2019.
 Gaussian 09:  ES64L-G09RevE.01 30-Nov-2015

 ----------------------------------------------------------------------
 # M062X/6-311+G* SCF=Tight INT(grid=ultrafine) SCRF=(SMD,Solvent=h2o)
 EmpiricalDispersion=GD3 Freq=Noraman maxdisk=3221225472 geom=check gue
 ss=read IOP(2/17=4)
 ----------------------------------------------------------------------

 ----------------------------------------
 NM2_carboxy.M062X_6-311pGd_opt_water_GD3
 ----------------------------------------
 Structure from the checkpoint file:  "NM2_carboxy.M062X_6-311pGd_opt_water_GD3.chk"
 Charge = -1 Multiplicity = 1

                         Standard orientation:
 ---------------------------------------------------------------------
 Center     Atomic      Atomic             Coordinates (Angstroms)
 Number     Number       Type             X           Y           Z
 ---------------------------------------------------------------------
      1          6           0       -0.309193    0.148232   -0.116923
      2          7           0        1.049644   -0.120359   -0.097993
      3          6           0        1.655626   -1.362435   -0.175495
      4          8           0        1.022246   -2.418505   -0.298933
      5          7           0        2.997577   -1.319347   -0.117588
      6          6           0        3.786724   -2.539597   -0.208276
      7          6           0        5.270184   -2.213259   -0.141911
      8          6           0        6.115164   -3.477785   -0.233990
      9          6           0       -1.304298   -0.810782    0.125586
     10          6           0       -2.644366   -0.453271    0.108270
     11          6           0       -3.035003    0.866526   -0.157906
     12          6           0       -2.040842    1.818261   -0.371239
     13          6           0       -0.702762    1.471404   -0.352404
     14          1           0        1.667720    0.703190   -0.138361
     15          1           0        3.485833   -0.428394    0.012014
     16          1           0        3.558305   -3.056402   -1.145476
     17          1           0        3.515801   -3.217172    0.607644
     18          1           0        5.483336   -1.686491    0.793519
     19          1           0        5.526431   -1.529111   -0.956901
     20          1           0        5.887175   -4.162855    0.586830
     21          1           0        7.180555   -3.244380   -0.187774
     22          1           0        5.929189   -4.006944   -1.172322
     23          1           0       -1.024828   -1.829602    0.338760
     24          1           0        0.051855    2.229802   -0.527757
     25          6           0       -4.464740    1.324757   -0.195347
     26          6           0       -3.640857   -1.557730    0.364600
     27          1           0       -2.313157    2.847675   -0.566411
     28          9           0       -5.276040    0.456867   -0.823453
     29          9           0       -4.592915    2.494986   -0.839353
     30          9           0       -4.986030    1.517630    1.031931
     31          9           0       -3.079392   -2.614323    0.966944
     32          9           0       -4.190752   -2.020482   -0.772042
     33          9           0       -4.651978   -1.164518    1.155180
     34          8           0        2.666034    2.224492   -0.192499
     35          8           0        4.537706    1.106577    0.265728
     36          6           0        3.899240    2.174299    0.086080
     37          6           0        4.628132    3.508336    0.203373
     38          6           0        6.100811    3.408902    0.568968
     39          1           0        4.082819    4.105749    0.940130
     40          1           0        4.498308    4.026054   -0.752048
     41          1           0        6.237943    2.915201    1.533097
     42          1           0        6.547216    4.403444    0.635347
     43          1           0        6.658087    2.841088   -0.178766
 ---------------------------------------------------------------------

 SCF Done:  E(RM062X) =  -1516.19605362     A.U. after    2 cycles

 The electronic state is 1-A.
 Alpha  occ. eigenvalues --  -25.28672 -25.28625 -25.28499 -25.28435 -25.28330
 Alpha  occ. eigenvalues --  -25.28077 -19.59416 -19.57931 -19.57623 -14.77491
 Alpha  occ. eigenvalues --  -14.75615 -10.81407 -10.81221 -10.67679 -10.63880
 Alpha  occ. eigenvalues --  -10.61225 -10.59386 -10.58407 -10.56749 -10.56227
 Alpha  occ. eigenvalues --  -10.56137 -10.55697 -10.52688 -10.52469 -10.51548
 Alpha  occ. eigenvalues --  -10.51354  -1.48204  -1.47671  -1.38768  -1.38400
 Alpha  occ. eigenvalues --   -1.38262  -1.37991  -1.17964  -1.16705  -1.06880
 Alpha  occ. eigenvalues --   -1.05978  -1.02673  -0.99184  -0.90244  -0.89699
 Alpha  occ. eigenvalues --   -0.87296  -0.85740  -0.82925  -0.81251  -0.77717
 Alpha  occ. eigenvalues --   -0.74649  -0.73813  -0.72228  -0.70791  -0.70555
 Alpha  occ. eigenvalues --   -0.70270  -0.69779  -0.68944  -0.68086  -0.67156
 Alpha  occ. eigenvalues --   -0.64953  -0.62670  -0.59689  -0.59011  -0.58912
 Alpha  occ. eigenvalues --   -0.58778  -0.58129  -0.58019  -0.55898  -0.55568
 Alpha  occ. eigenvalues --   -0.55201  -0.54634  -0.54047  -0.53613  -0.53326
 Alpha  occ. eigenvalues --   -0.52911  -0.52856  -0.52620  -0.52189  -0.51978
 Alpha  occ. eigenvalues --   -0.51921  -0.51331  -0.50149  -0.50043  -0.48962
 Alpha  occ. eigenvalues --   -0.47443  -0.46412  -0.46347  -0.45193  -0.44990
 Alpha  occ. eigenvalues --   -0.44327  -0.43093  -0.41778  -0.41454  -0.39722
 Alpha  occ. eigenvalues --   -0.39544  -0.39469  -0.38680  -0.35978  -0.34018
 Alpha  occ. eigenvalues --   -0.33581  -0.32918  -0.32505  -0.32429  -0.27994
 Alpha virt. eigenvalues --   -0.01670   0.00020   0.01443   0.02317   0.02638
 Alpha virt. eigenvalues --    0.03222   0.03291   0.03592   0.04275   0.04593
 Alpha virt. eigenvalues --    0.04716   0.05008   0.05419   0.05856   0.06380

 Mulliken charges:
               1
     1  C   -1.212592
     2  N   -0.392788
     3  C    0.255020
     4  O   -0.527003
     5  N   -0.444462
     6  C   -0.533678
     7  C   -0.082706
     8  C   -1.173682
     9  C    0.013695
    10  C   -0.749360
    11  C   -0.542118
    12  C   -0.029757
    13  C   -0.004726
    14  H    0.483032
    15  H    0.473033
    16  H    0.272029
    17  H    0.274834
    18  H    0.272494
    19  H    0.275081
    20  H    0.269094
    21  H    0.279957
    22  H    0.268801
    23  H    0.329823
    24  H    0.330983
    25  C    0.950727
    26  C    1.069942
    27  H    0.320339
    28  F   -0.097464
    29  F   -0.123872
    30  F   -0.059442
    31  F   -0.115494
    32  F   -0.048011
    33  F   -0.086813
    34  O   -0.625223
    35  O   -0.569228
    36  C    0.190249
    37  C   -0.264756
    38  C   -1.029237
    39  H    0.283049
    40  H    0.284701
    41  H    0.269118
    42  H    0.277541
    43  H    0.268870
 Sum of Mulliken charges =  -1.00000

 Dipole moment (field-independent basis, Debye):
    X=             -2.5953    Y=              1.2252    Z=              0.0564  Tot=              2.8705
 Quadrupole moment (field-independent basis, Debye-Ang):
   XX=           -219.3362   YY=           -167.9465   ZZ=           -156.5510
   XY=            -13.8530   XZ=             -0.9157   YZ=             -1.7443

  Exact polarizability: 357.878 -23.492 304.192   3.214  -9.619 203.290
 Approx polarizability: 286.619 -12.858 257.723   2.207  -8.703 183.466

                      1                      2                      3
                      A                      A                      A
 Frequencies --     10.7845                21.3532                31.1706
 Red. masses --      7.0112                 6.2757                 4.2311
 Frc consts  --      0.0005                 0.0017                 0.0024
 IR Inten    --      0.8800                 0.4245                 1.1220

                      4                      5                      6
                      A                      A                      A
 Frequencies --     37.8114                44.7718                48.2794
 Red. masses --      3.9876                 6.1760                 3.8511
 Frc consts  --      0.0034                 0.0073                 0.0053
 IR Inten    --      0.1334                 7.1298                 3.5642

                      7                      8                      9
                      A                      A                      A
 Frequencies --     57.9890                60.4439                63.9343
 Red. masses --      3.8793                 3.0803                 2.5661
 Frc consts  --      0.0077                 0.0066                 0.0062
 IR Inten    --      3.9345                 0.6188                 4.2582

                     10                     11                     12
                      A                      A                      A
 Frequencies --     66.6112                74.7565                89.1329
 Red. masses --      7.2863                 5.7655                 5.6169
 Frc consts  --      0.0190                 0.0190                 0.0263
 IR Inten    --      2.1964                14.8557                 6.6952

                     13                     14                     15
                      A                      A                      A
 Frequencies --     96.7212               106.4903               117.3702
 Red. masses --     18.2991                 4.4178                 8.0658
 Frc consts  --      0.1009                 0.0295                 0.0655
 IR Inten    --      0.3409                11.3527                18.7890

                     16                     17                     18
                      A                      A                      A
 Frequencies --    142.6761               158.0863               163.4198
 Red. masses --      7.4854                 4.2709                 3.7657
 Frc consts  --      0.0898                 0.0629                 0.0593
 IR Inten    --      3.0575                16.0863                14.0473

                     19                     20                     21
                      A                      A                      A
 Frequencies --    172.5050               206.8375               230.7876
 Red. masses --     12.0504                 7.9748                 8.0609
 Frc consts  --      0.2113                 0.2010                 0.2530
 IR Inten    --      0.6287                 0.8842                 5.6796

                     22                     23                     24
                      A                      A                      A
 Frequencies --    241.9999               244.1333               250.7175
 Red. masses --      1.6830                 2.4406                 1.0887
 Frc consts  --      0.0581                 0.0857                 0.0403
 IR Inten    --      3.6284                 5.1998                 1.3033

                     25                     26                     27
                      A                      A                      A
 Frequencies --    269.2795               300.4204               319.5589
 Red. masses --      7.1830                 3.9461                 7.1315
 Frc consts  --      0.3069                 0.2098                 0.4291
 IR Inten    --      5.3202                12.3794                 1.2413

                     28                     29                     30
                      A                      A                      A
 Frequencies --    340.8649               349.3235               389.7497
 Red. masses --     13.2182                 5.2232                 8.2535
 Frc consts  --      0.9049                 0.3755                 0.7387
 IR Inten    --      0.3208                15.9012                 6.2629

                     31                     32                     33
                      A                      A                      A
 Frequencies --    397.7951               417.8888               466.4627
 Red. masses --      5.8362                 5.0569                 7.4454
 Frc consts  --      0.5441                 0.5203                 0.9545
 IR Inten    --     39.1468                 1.7362                12.7477

                     34                     35                     36
                      A                      A                      A
 Frequencies --    477.6242               506.6935               521.6320
 Red. masses --      5.9303                 5.7894                 5.6362
 Frc consts  --      0.7971                 0.8757                 0.9036
 IR Inten    --      2.1143                37.4282                30.7904

                     37                     38                     39
                      A                      A                      A
 Frequencies --    539.7473               572.5850               581.4965
 Red. masses --     11.2968                14.6571                 1.8881
 Frc consts  --      1.9390                 2.8312                 0.3762
 IR Inten    --      4.0460                 2.4752                 0.7806

                     40                     41                     42
                      A                      A                      A
 Frequencies --    602.5538               621.1641               652.6776
 Red. masses --      5.4286                 8.6358                 1.9768
 Frc consts  --      1.1613                 1.9632                 0.4962
 IR Inten    --     22.6612                 1.1317               105.0747

                     43                     44                     45
                      A                      A                      A
 Frequencies --    656.6958               657.3805               664.2273
 Red. masses --      5.4896                 3.1549                 2.5753
 Frc consts  --      1.3948                 0.8033                 0.6695
 IR Inten    --     18.0997                42.7495                70.7090

                     46                     47                     48
                      A                      A                      A
 Frequencies --    680.8541               755.4039               758.0935
 Red. masses --      8.8563                 4.6528                 1.1331
 Frc consts  --      2.4189                 1.5643                 0.3837
 IR Inten    --     31.9846                 5.2450                20.0315

                     49                     50                     51
                      A                      A                      A
 Frequencies --    768.0884               775.0256               779.1525
 Red. masses --      4.4916                10.0944                 3.7456
 Frc consts  --      1.5613                 3.5724                 1.3397
 IR Inten    --     24.7068                 3.9535                70.5340

                     52                     53                     54
                      A                      A                      A
 Frequencies --    800.9832               811.6356               823.5549
 Red. masses --      4.9705                 1.4723                 1.5070
 Frc consts  --      1.8789                 0.5715                 0.6022
 IR Inten    --      7.6991               121.2060                72.5612

                     55                     56                     57
                      A                      A                      A
 Frequencies --    862.5253               886.4925               906.1634
 Red. masses --      1.4990                 3.9479                 1.1564
 Frc consts  --      0.6571                 1.8280                 0.5595
 IR Inten    --    117.7214                39.7572                 1.2273

                     58                     59                     60
                      A                      A                      A
 Frequencies --    913.9574               926.5904               956.2146
 Red. masses --      1.5136                 1.8051                 4.8703
 Frc consts  --      0.7449                 0.9131                 2.6237
 IR Inten    --     52.4534                 4.6472                11.9950

                     61                     62                     63
                      A                      A                      A
 Frequencies --    998.8897              1025.4436              1044.3250
 Red. masses --      1.3510                 1.6654                 6.3746
 Frc consts  --      0.7942                 1.0318                 4.0961
 IR Inten    --      3.4733                13.0776                78.4134

                     64                     65                     66
                      A                      A                      A
 Frequencies --   1048.8576              1080.1778              1110.0832
 Red. masses --      4.3379                 2.6143                 2.3325
 Frc consts  --      2.8116                 1.7972                 1.6935
 IR Inten    --     33.1457                24.3160                19.3644

                     67                     68                     69
                      A                      A                      A
 Frequencies --   1110.7526              1120.9524              1137.7172
 Red. masses --      1.7922                 3.8665                 9.7668
 Frc consts  --      1.3028                 2.8625                 7.4486
 IR Inten    --      2.4991               291.4325               168.3704

                     70                     71                     72
                      A                      A                      A
 Frequencies --   1148.3618              1151.2199              1156.6543
 Red. masses --      2.7761                 6.2983                 6.0445
 Frc consts  --      2.1569                 4.9180                 4.7645
 IR Inten    --    119.9896               459.1718               459.6692

                     73                     74                     75
                      A                      A                      A
 Frequencies --   1175.0075              1180.8453              1195.7503
 Red. masses --      3.7442                 1.6248                 8.6454
 Frc consts  --      3.0457                 1.3348                 7.2831
 IR Inten    --      2.4445                 0.1191               333.9584

                     76                     77                     78
                      A                      A                      A
 Frequencies --   1201.9667              1285.1613              1290.0703
 Red. masses --      1.5647                 1.1905                 2.6406
 Frc consts  --      1.3318                 1.1585                 2.5893
 IR Inten    --    410.8170                 4.0573               571.8188

                     79                     80                     81
                      A                      A                      A
 Frequencies --   1295.9233              1299.5469              1313.0934
 Red. masses --      1.1688                 1.9436                 2.4778
 Frc consts  --      1.1565                 1.9339                 2.5172
 IR Inten    --      0.7269               349.4072               339.1054

                     82                     83                     84
                      A                      A                      A
 Frequencies --   1324.0137              1331.4434              1332.4796
 Red. masses --      2.2175                 1.7935                 1.0727
 Frc consts  --      2.2904                 1.8732                 1.1221
 IR Inten    --    174.6463               176.1415                 4.7954

                     85                     86                     87
                      A                      A                      A
 Frequencies --   1341.9656              1357.2464              1382.0259
 Red. masses --      2.6820                 2.1126                 4.5828
 Frc consts  --      2.8458                 2.2929                 5.1572
 IR Inten    --    866.9870               114.1367               461.0647

                     88                     89                     90
                      A                      A                      A
 Frequencies --   1416.6001              1417.5291              1426.8481
 Red. masses --      1.2690                 1.3176                 1.6901
 Frc consts  --      1.5004                 1.5598                 2.0273
 IR Inten    --      2.1535                32.3689                26.4467

                     91                     92                     93
                      A                      A                      A
 Frequencies --   1447.8825              1462.6322              1472.9445
 Red. masses --      1.6692                 1.9806                 4.9485
 Frc consts  --      2.0618                 2.4964                 6.3255
 IR Inten    --    252.8493               224.0412               209.2125

                     94                     95                     96
                      A                      A                      A
 Frequencies --   1483.7929              1500.6828              1500.9990
 Red. masses --      1.0607                 1.0394                 1.0386
 Frc consts  --      1.3760                 1.3791                 1.3787
 IR Inten    --      5.6574                13.1713                14.6387

                     97                     98                     99
                      A                      A                      A
 Frequencies --   1505.9787              1508.4004              1528.1450
 Red. masses --      1.0934                 1.0769                 1.1042
 Frc consts  --      1.4610                 1.4437                 1.5192
 IR Inten    --     62.9984                 1.9856                56.6055

                    100                    101                    102
                      A                      A                      A
 Frequencies --   1541.5413              1567.0750              1602.4455
 Red. masses --      6.7028                 2.8449                 3.0801
 Frc consts  --      9.3847                 4.1163                 4.6600
 IR Inten    --    953.1398               124.8271               369.6381

                    103                    104                    105
                      A                      A                      A
 Frequencies --   1610.8589              1651.5096              1690.4590
 Red. masses --      1.9521                 8.6598                 5.7009
 Frc consts  --      2.9845                13.9161                 9.5984
 IR Inten    --   1544.5003               213.5005               126.7385

                    106                    107                    108
                      A                      A                      A
 Frequencies --   1720.9497              3063.6780              3067.0178
 Red. masses --      1.8923                 1.0584                 1.0390
 Frc consts  --      3.3021                 5.8529                 5.7583
 IR Inten    --    585.1794                13.4708                27.3169

                    109                    110                    111
                      A                      A                      A
 Frequencies --   3071.6153              3075.0540              3079.5307
 Red. masses --      1.0583                 1.0368                 1.0622
 Frc consts  --      5.8827                 5.7761                 5.9351
 IR Inten    --    117.1968                45.5201                18.0197

                    112                    113                    114
                      A                      A                      A
 Frequencies --   3093.1976              3112.4413              3112.8701
 Red. masses --      1.1042                 1.1014                 1.1062
 Frc consts  --      6.2248                 6.2863                 6.3156
 IR Inten    --      6.1365                 6.1347                40.9710

                    115                    116                    117
                      A                      A                      A
 Frequencies --   3135.7369              3143.3116              3143.8162
 Red. masses --      1.1042                 1.1025                 1.1024
 Frc consts  --      6.3968                 6.4179                 6.4193
 IR Inten    --     98.9989                49.8613                46.9888

                    118                    119                    120
                      A                      A                      A
 Frequencies --   3148.6382              3226.4665              3238.5117
 Red. masses --      1.1037                 1.0918                 1.0883
 Frc consts  --      6.4469                 6.6965                 6.7250
 IR Inten    --     56.1769                 9.2253              1134.2242

                    121                    122                    123
                      A                      A                      A
 Frequencies --   3249.9535              3298.8968              3360.5150
 Red. masses --      1.0941                 1.0914                 1.0861
 Frc consts  --      6.8087                 6.9981                 7.2265
 IR Inten    --      0.8618                18.9959              1311.8737

 - Thermochemistry -
 -------------------
 Temperature   298.150 Kelvin.  Pressure   1.00000 Atm.
 Atom     1 has atomic number  6 and mass  12.00000

 Molecular mass:   387.11434 amu.
 Principal axes and moments of inertia in atomic units:
                           1         2         3
     Eigenvalues --  6005.45843********************
           X            0.99999  -0.00359   0.00134
           Y            0.00358   0.99996   0.00822
           Z           -0.00137  -0.00821   0.99997
 This molecule is an asymmetric top.
 Rotational symmetry number  1.
 Warning -- assumption of classical behavior for rotation
           may cause significant error
 Rotational temperatures (Kelvin)      0.01442     0.00406     0.00328
 Rotational constants (GHZ):           0.30052     0.08466     0.06831
 Zero-point vibrational energy     840782.4 (Joules/Mol)
                                  200.95181 (Kcal/Mol)
 Warning -- explicit consideration of  40 degrees of freedom as
           vibrations may cause significant error
 Vibrational temperatures:     15.52    30.72    44.85    54.40    64.42
          (Kelvin)             69.46    83.43    86.97    91.99    95.84
                              107.56   128.24   139.16   153.22   168.87
                              205.28   227.45   235.12   248.20   297.59
                              332.05   348.18   351.25   360.73   387.43
                              432.24   459.77   490.43   502.60   560.76
                              572.34   601.25   671.13   687.19   729.02
                              750.51   776.58   823.82   836.64   866.94
                              893.72   939.06   944.84   945.82   955.67
                              979.60  1086.86  1090.73  1105.11  1115.09
                             1121.03  1152.43  1167.76  1184.91  1240.98
                             1275.46  1303.77  1314.98  1333.16  1375.78
                             1437.18  1475.38  1502.55  1509.07  1554.13
                             1597.16  1598.12  1612.80  1636.92  1652.23
                             1656.35  1664.17  1690.57  1698.97  1720.42
                             1729.36  1849.06  1856.12  1864.54  1869.76
                             1889.25  1904.96  1915.65  1917.14  1930.79
                             1952.77  1988.42  2038.17  2039.51  2052.91
                             2083.18  2104.40  2119.24  2134.84  2159.15
                             2159.60  2166.76  2170.25  2198.66  2217.93
                             2254.67  2305.56  2317.66  2376.15  2432.19
                             2476.06  4407.94  4412.75  4419.36  4424.31
                             4430.75  4450.42  4478.10  4478.72  4511.62
                             4522.52  4523.24  4530.18  4642.16  4659.49
                             4675.95  4746.37  4835.03

 Zero-point correction=                           0.320237 (Hartree/Particle)
 Thermal correction to Energy=                    0.347213
 Thermal correction to Enthalpy=                  0.348157
 Thermal correction to Gibbs Free Energy=         0.257471
 Sum of electronic and zero-point Energies=          -1515.875817
 Sum of electronic and thermal Energies=             -1515.848841
 Sum of electronic and thermal Enthalpies=           -1515.847896
 Sum of electronic and thermal Free Energies=        -1515.938582

                     E (Thermal)             CV                S
                      KCal/Mol        Cal/Mol-Kelvin    Cal/Mol-Kelvin
 Total                  217.879             95.045            190.864
 Electronic               0.000              0.000              0.000
 Translational            0.889              2.981             43.753
 Rotational               0.889              2.981             36.468
 Vibrational            216.102             89.084            110.644
 Vibration     1          0.593              1.987              7.861
 Vibration     2          0.593              1.985              6.504
 Vibration     3          0.594              1.983              5.753
 Vibration     4          0.594              1.982              5.371
 Vibration     5          0.595              1.979              5.036
 Vibration     6          0.595              1.978              4.887
 Vibration     7          0.596              1.974              4.524
 Vibration     8          0.597              1.973              4.443
 Vibration     9          0.597              1.972              4.332
 Vibration    10          0.598              1.970              4.251
 Vibration    11          0.599              1.966              4.024
 Vibration    12          0.602              1.957              3.679
 Vibration    13          0.603              1.952              3.519
 Vibration    14          0.605              1.944              3.332
 Vibration    15          0.608              1.935              3.143
 Vibration    16          0.616              1.911              2.768
 Vibration    17          0.621              1.894              2.573
 Vibration    18          0.623              1.887              2.510
 Vibration    19          0.626              1.876              2.408
 Vibration    20          0.641              1.830              2.071
 Vibration    21          0.652              1.794              1.873
 Vibration    22          0.658              1.776              1.788
 Vibration    23          0.659              1.772              1.773
 Vibration    24          0.663              1.762              1.726
 Vibration    25          0.674              1.730              1.601
 Vibration    26          0.693              1.673              1.415
 Vibration    27          0.705              1.636              1.312
 Vibration    28          0.720              1.594              1.208
 Vibration    29          0.727              1.577              1.169
 Vibration    30          0.758              1.492              1.001
 Vibration    31          0.764              1.475              0.971
 Vibration    32          0.781              1.431              0.899
 Vibration    33          0.824              1.324              0.748
 Vibration    34          0.834              1.300              0.717
 Vibration    35          0.862              1.235              0.642
 Vibration    36          0.877              1.202              0.606
 Vibration    37          0.895              1.162              0.566
 Vibration    38          0.929              1.091              0.499
 Vibration    39          0.938              1.071              0.483
 Vibration    40          0.961              1.026              0.445

 Optimization completed on the basis of negligible forces.
    -- Stationary point found.
 Normal termination of Gaussian 09 at Fri Nov 15 00:29:04 2019.
