 Gaussian 16, Revision C.01,
 Gaussian 16:  ES64L-G16RevC.01  3-Jul-2019

 ----------------------------------------------------------------------
 # DSDPBEP86/AUG-cc-PVTZ SCF=Tight INT(grid=ultrafine) Pop=NBO MaxDisk=
 1400000MB
 ----------------------------------------------------------------------

 ---------------------------------
 NM2_carboxy.DSDPBEP86_AUG-cc-PVTZ
 ---------------------------------
 Symbolic Z-matrix:
 Charge = -1 Multiplicity = 1

                         Standard orientation:
 ---------------------------------------------------------------------
 Center     Atomic      Atomic             Coordinates (Angstroms)
 Number     Number       Type             X           Y           Z
 ---------------------------------------------------------------------
      1          6           0        0.271964    0.118092   -0.029188
      2          7           0       -1.073168   -0.146710   -0.034234
      3          6           0       -1.689603   -1.394865    0.015447
      4          8           0       -1.079581   -2.456709    0.068123
      5          7           0       -3.038026   -1.303907   -0.008460
      6          6           0       -3.852922   -2.493055    0.097348
      7          6           0       -5.300817   -2.157771   -0.237550
      8          6           0       -6.208745   -3.374519   -0.091054
      9          6           0        1.284496   -0.860975   -0.002878
     10          6           0        2.621290   -0.491647   -0.002396
     11          6           0        3.002168    0.859381   -0.016563
     12          6           0        1.991676    1.821200   -0.052697
     13          6           0        0.656599    1.470841   -0.058514
     14          1           0       -1.684991    0.694049   -0.064828
     15          1           0       -3.508572   -0.386820    0.029339
     16          1           0       -3.789058   -2.918184    1.108713
     17          1           0       -3.465049   -3.257126   -0.583616
     18          1           0       -5.345114   -1.767985   -1.258898
     19          1           0       -5.641070   -1.343380    0.408693
     20          1           0       -5.887840   -4.189032   -0.747139
     21          1           0       -7.244179   -3.133353   -0.341966
     22          1           0       -6.195960   -3.754592    0.934478
     23          1           0        1.002304   -1.902167    0.011535
     24          1           0       -0.119611    2.229284   -0.082156
     25          6           0        4.424497    1.333676   -0.042312
     26          6           0        3.631930   -1.611233    0.057650
     27          1           0        2.259950    2.870103   -0.069306
     28          9           0        5.225535    0.662960    0.801392
     29          9           0        4.518240    2.632756    0.306734
     30          9           0        4.991622    1.244859   -1.262105
     31          9           0        3.102562   -2.791628   -0.292238
     32          9           0        4.135480   -1.777242    1.294022
     33          9           0        4.675639   -1.407839   -0.763805
     34          8           0       -2.490630    2.219634   -0.092402
     35          8           0       -4.441693    1.144081    0.107031
     36          6           0       -3.743923    2.177464    0.014138
     37          6           0       -4.459517    3.536243    0.028488
     38          6           0       -5.973702    3.445120    0.155121
     39          1           0       -4.169234    4.060837   -0.887200
     40          1           0       -4.027512    4.117336    0.849282
     41          1           0       -6.396305    2.869980   -0.670361
     42          1           0       -6.434144    4.437881    0.159260
     43          1           0       -6.254082    2.928936    1.074756
 ---------------------------------------------------------------------

 SCF Done:  E(RDSDPBEP86) =  -1511.90130320     A.U. after   13 cycles
 E2(DSDPBEP86) =    -0.2563372758D+01 E(DSDPBEP86) =    -0.15144646759535D+04

 The electronic state is 1-A.
 Alpha  occ. eigenvalues --  -25.62235 -25.61933 -25.61916 -25.61883 -25.61612
 Alpha  occ. eigenvalues --  -25.61581 -19.84801 -19.82451 -19.82194 -14.98666
 Alpha  occ. eigenvalues --  -14.96582 -10.99753 -10.99619 -10.83796 -10.79219
 Alpha  occ. eigenvalues --  -10.78551 -10.76983 -10.75714 -10.74824 -10.73976
 Alpha  occ. eigenvalues --  -10.73147 -10.72724 -10.72082 -10.71386 -10.69995
 Alpha  occ. eigenvalues --  -10.69868  -1.48739  -1.48287  -1.39337  -1.38982
 Alpha  occ. eigenvalues --   -1.38835  -1.38662  -1.15156  -1.12968  -1.03317
 Alpha  occ. eigenvalues --   -1.02731  -0.99563  -0.96584  -0.87062  -0.86607
 Alpha  occ. eigenvalues --   -0.84891  -0.82564  -0.78877  -0.76924  -0.74070
 Alpha  occ. eigenvalues --   -0.69567  -0.69096  -0.67636  -0.65282  -0.64873
 Alpha  occ. eigenvalues --   -0.64704  -0.64128  -0.63785  -0.63338  -0.61045
 Alpha  occ. eigenvalues --   -0.58666  -0.55879  -0.53657  -0.53411  -0.53023
 Alpha  occ. eigenvalues --   -0.52730  -0.52590  -0.51141  -0.49896  -0.49063
 Alpha  occ. eigenvalues --   -0.48926  -0.48827  -0.48119  -0.47598  -0.46797
 Alpha  occ. eigenvalues --   -0.46640  -0.46556  -0.46382  -0.45251  -0.45055
 Alpha  occ. eigenvalues --   -0.44340  -0.44049  -0.43408  -0.42222  -0.41583
 Alpha  occ. eigenvalues --   -0.40671  -0.39870  -0.38585  -0.37475  -0.37306
 Alpha  occ. eigenvalues --   -0.37274  -0.36024  -0.35709  -0.34339  -0.33585
 Alpha  occ. eigenvalues --   -0.32869  -0.31968  -0.30066  -0.26447  -0.23876
 Alpha  occ. eigenvalues --   -0.23071  -0.22761  -0.22491  -0.22306  -0.17617
 Alpha virt. eigenvalues --    0.08069   0.08720   0.09613   0.09943   0.10163
 Alpha virt. eigenvalues --    0.10812   0.10938   0.11258   0.11639   0.12466
 Alpha virt. eigenvalues --    0.12612   0.12868   0.13065   0.13200   0.13382

 Mulliken charges:
               1
     1  C    0.897022
     2  N   -0.470291
     3  C   -0.024285
     4  O   -0.962536
     5  N   -0.351400
     6  C   -0.499710
     7  C   -0.410945
     8  C   -1.018866
     9  C   -1.152861
    10  C    0.698372
    11  C    0.240088
    12  C   -1.030370
    13  C   -0.738655
    14  H    0.813275
    15  H    0.908041
    16  H    0.243528
    17  H    0.359494
    18  H    0.224486
    19  H    0.288002
    20  H    0.270775
    21  H    0.268871
    22  H    0.268797
    23  H    0.372568
    24  H    0.604614
    25  C    1.236843
    26  C    1.213284
    27  H    0.397440
    28  F   -0.446735
    29  F   -0.395444
    30  F   -0.421709
    31  F   -0.372869
    32  F   -0.421900
    33  F   -0.449417
    34  O   -0.918378
    35  O   -0.830808
    36  C    0.655404
    37  C   -0.280070
    38  C   -0.930302
    39  H    0.190973
    40  H    0.194247
    41  H    0.259999
    42  H    0.269565
    43  H    0.251861
 Sum of Mulliken charges =  -1.00000

 Dipole moment (field-independent basis, Debye):
    X=              2.2598    Y=              0.1057    Z=             -0.1218  Tot=              2.2655
 Quadrupole moment (field-independent basis, Debye-Ang):
   XX=           -230.4097   YY=           -178.0596   ZZ=           -155.7719
   XY=             10.3476   XZ=              0.6145   YZ=              0.8215

 Summary of Natural Population Analysis:

                                       Natural Population
                Natural  -----------------------------------------------
    Atom  No    Charge         Core      Valence    Rydberg      Total
 -----------------------------------------------------------------------
      C    1    0.24732      1.99913     3.72485    0.02871     5.75268
      N    2   -0.69136      1.99934     5.66683    0.02519     7.69136
      C    3    0.89623      1.99945     3.06810    0.03622     5.10377
      O    4   -0.75688      1.99977     6.72650    0.03061     8.75688
      N    5   -0.70416      1.99940     5.68573    0.01904     7.70416
      C    6   -0.13660      1.99944     4.11303    0.02414     6.13660
      C    7   -0.36927      1.99950     4.34928    0.02049     6.36927
      C    8   -0.54394      1.99954     4.52959    0.01481     6.54394
      C    9   -0.23630      1.99910     4.21521    0.02199     6.23630
      C   10   -0.15695      1.99900     4.10325    0.05470     6.15695
      C   11   -0.10551      1.99891     4.06971    0.03690     6.10551
      C   12   -0.19172      1.99930     4.15147    0.04096     6.19172
      C   13   -0.23749      1.99917     4.21837    0.01995     6.23749
      H   14    0.46334      0.00000     0.53047    0.00620     0.53666
      H   15    0.45410      0.00000     0.53945    0.00646     0.54590
      H   16    0.15608      0.00000     0.84085    0.00307     0.84392
      H   17    0.17724      0.00000     0.81952    0.00324     0.82276
      H   18    0.18122      0.00000     0.81515    0.00363     0.81878
      H   19    0.19798      0.00000     0.79862    0.00340     0.80202
      H   20    0.17671      0.00000     0.82085    0.00244     0.82329
      H   21    0.18223      0.00000     0.81553    0.00224     0.81777
      H   22    0.17792      0.00000     0.81960    0.00248     0.82208
      H   23    0.26917      0.00000     0.72681    0.00403     0.73083
      H   24    0.24576      0.00000     0.75091    0.00333     0.75424
      C   25    1.10091      1.99924     2.84468    0.05517     4.89909
      C   26    1.09703      1.99923     2.85254    0.05120     4.90297
      H   27    0.21455      0.00000     0.78264    0.00281     0.78545
      F   28   -0.36873      1.99992     7.36012    0.00869     9.36873
      F   29   -0.37653      1.99993     7.36882    0.00778     9.37653
      F   30   -0.37375      1.99992     7.36520    0.00862     9.37375
      F   31   -0.36131      1.99992     7.35449    0.00690     9.36131
      F   32   -0.36675      1.99992     7.35948    0.00735     9.36675
      F   33   -0.36714      1.99992     7.35931    0.00790     9.36714
      O   34   -0.85911      1.99975     6.83645    0.02291     8.85911
      O   35   -0.83231      1.99975     6.80761    0.02494     8.83231
      C   36    0.89240      1.99963     3.06321    0.04476     5.10760
      C   37   -0.46726      1.99941     4.44574    0.02212     6.46726
      C   38   -0.54634      1.99955     4.53068    0.01612     6.54634
      H   39    0.18820      0.00000     0.80867    0.00313     0.81180
      H   40    0.18814      0.00000     0.80873    0.00313     0.81186
      H   41    0.18977      0.00000     0.80741    0.00281     0.81023
      H   42    0.16377      0.00000     0.83327    0.00296     0.83623
      H   43    0.18970      0.00000     0.80749    0.00281     0.81030
 =======================================================================
   * Total *   -0.99967     51.98715   147.29622    0.71630   199.99967

 Normal termination of Gaussian 16 at Tue Nov  3 18:42:27 2020.
