 Gaussian 16, Revision C.01,
 Gaussian 16:  ES64L-G16RevC.01  3-Jul-2019

 ----------------------------------------------------------------------
 # DSDPBEP86/AUG-cc-PVTZ SCF=Tight INT(grid=ultrafine) Pop=NBO MaxDisk=
 1400000MB
 ----------------------------------------------------------------------

 ------------------------------------
 NM2_c2_carboxy.DSDPBEP86_AUG-cc-PVTZ
 ------------------------------------
 Symbolic Z-matrix:
 Charge = -1 Multiplicity = 1

                         Standard orientation:
 ---------------------------------------------------------------------
 Center     Atomic      Atomic             Coordinates (Angstroms)
 Number     Number       Type             X           Y           Z
 ---------------------------------------------------------------------
      1          6           0        0.289666   -0.879975    0.001467
      2          7           0       -1.075588   -0.761432    0.009815
      3          6           0       -2.007513   -1.796290   -0.014448
      4          8           0       -1.709938   -2.985651   -0.048377
      5          7           0       -3.280660   -1.344863    0.007515
      6          6           0       -4.384523   -2.275642   -0.058613
      7          6           0       -5.698139   -1.531757    0.144887
      8          6           0       -6.896164   -2.471168    0.053331
      9          6           0        1.026569    0.326790    0.007935
     10          6           0        2.406950    0.325638    0.004952
     11          6           0        3.119694   -0.889191    0.004507
     12          6           0        2.387364   -2.071471   -0.011842
     13          6           0        1.000683   -2.089150   -0.012891
     14          1           0       -1.438879    0.214993    0.028530
     15          1           0       -3.491075   -0.334897   -0.019141
     16          1           0       -4.257895   -3.049520    0.706429
     17          1           0       -4.390052   -2.796338   -1.025687
     18          1           0       -5.778148   -0.731964   -0.596868
     19          1           0       -5.675974   -1.032594    1.118095
     20          1           0       -6.945068   -2.953549   -0.927188
     21          1           0       -7.836092   -1.936192    0.206742
     22          1           0       -6.836776   -3.262750    0.806136
     23          1           0        0.474452    1.261305    0.010587
     24          1           0        0.460434   -3.023040   -0.021933
     25          6           0        4.615246   -0.983906   -0.026862
     26          6           0        3.095437    1.667430    0.044927
     27          1           0        2.916705   -3.016372   -0.017324
     28          9           0        5.220620   -0.121450    0.805809
     29          9           0        5.135776   -0.763858   -1.250965
     30          9           0        5.041623   -2.212080    0.331863
     31          9           0        2.278126    2.665376   -0.312497
     32          9           0        4.152660    1.726548   -0.782882
     33          9           0        3.547075    1.970795    1.275224
     34          8           0       -1.817976    1.876758    0.044708
     35          8           0       -3.995856    1.381904   -0.073158
     36          6           0       -3.037065    2.183023   -0.019057
     37          6           0       -3.347605    3.686251   -0.030612
     38          6           0       -4.831775    4.018514   -0.092542
     39          1           0       -2.808941    4.117356   -0.880225
     40          1           0       -2.881004    4.116870    0.860704
     41          1           0       -5.286291    3.591782   -0.988142
     42          1           0       -4.998035    5.100112   -0.099594
     43          1           0       -5.359328    3.592212    0.762391
 ---------------------------------------------------------------------

 SCF Done:  E(RDSDPBEP86) =  -1511.90093229     A.U. after   14 cycles
 E2(DSDPBEP86) =    -0.2563421214D+01 E(DSDPBEP86) =    -0.15144643535087D+04

 The electronic state is 1-A.
 Alpha  occ. eigenvalues --  -25.62209 -25.61879 -25.61748 -25.61739 -25.61523
 Alpha  occ. eigenvalues --  -25.61472 -19.84810 -19.82324 -19.82052 -14.98589
 Alpha  occ. eigenvalues --  -14.96546 -10.99700 -10.99498 -10.83760 -10.79079
 Alpha  occ. eigenvalues --  -10.78542 -10.76907 -10.75617 -10.74842 -10.73997
 Alpha  occ. eigenvalues --  -10.73448 -10.72443 -10.72089 -10.71365 -10.69767
 Alpha  occ. eigenvalues --  -10.69683  -1.48643  -1.48189  -1.39263  -1.38874
 Alpha  occ. eigenvalues --   -1.38737  -1.38565  -1.15118  -1.12849  -1.03268
 Alpha  occ. eigenvalues --   -1.02622  -0.99527  -0.96535  -0.86989  -0.86621
 Alpha  occ. eigenvalues --   -0.84865  -0.82374  -0.78944  -0.76674  -0.74072
 Alpha  occ. eigenvalues --   -0.69688  -0.68669  -0.67467  -0.65004  -0.64781
 Alpha  occ. eigenvalues --   -0.64664  -0.64095  -0.64021  -0.63352  -0.61597
 Alpha  occ. eigenvalues --   -0.57802  -0.55894  -0.53592  -0.53268  -0.53084
 Alpha  occ. eigenvalues --   -0.52617  -0.52567  -0.51053  -0.49692  -0.48960
 Alpha  occ. eigenvalues --   -0.48896  -0.48741  -0.48019  -0.47639  -0.46732
 Alpha  occ. eigenvalues --   -0.46597  -0.46481  -0.46431  -0.45053  -0.44845
 Alpha  occ. eigenvalues --   -0.44291  -0.43709  -0.43537  -0.42295  -0.41498
 Alpha  occ. eigenvalues --   -0.40534  -0.40012  -0.38390  -0.37435  -0.37162
 Alpha  occ. eigenvalues --   -0.37119  -0.36046  -0.35712  -0.34163  -0.33467
 Alpha  occ. eigenvalues --   -0.32930  -0.31761  -0.29986  -0.26415  -0.23917
 Alpha  occ. eigenvalues --   -0.22999  -0.22631  -0.22398  -0.22209  -0.17560
 Alpha virt. eigenvalues --    0.08029   0.08917   0.09493   0.09993   0.10104
 Alpha virt. eigenvalues --    0.10980   0.11091   0.11189   0.11743   0.12483
 Alpha virt. eigenvalues --    0.12531   0.12902   0.13223   0.13355   0.13540

 Mulliken charges:
               1
     1  C    1.034123
     2  N   -0.568698
     3  C   -0.152621
     4  O   -0.996883
     5  N   -0.259585
     6  C   -0.480101
     7  C   -0.381110
     8  C   -1.045045
     9  C   -1.355408
    10  C    0.546347
    11  C    0.225178
    12  C   -0.825876
    13  C   -0.639302
    14  H    0.894987
    15  H    0.923053
    16  H    0.329692
    17  H    0.247894
    18  H    0.266801
    19  H    0.228316
    20  H    0.271614
    21  H    0.270885
    22  H    0.270016
    23  H    0.525545
    24  H    0.502068
    25  C    1.247460
    26  C    1.180266
    27  H    0.330142
    28  F   -0.446432
    29  F   -0.419304
    30  F   -0.389541
    31  F   -0.361836
    32  F   -0.454496
    33  F   -0.418969
    34  O   -0.886101
    35  O   -0.817475
    36  C    0.676091
    37  C   -0.299779
    38  C   -0.929278
    39  H    0.191955
    40  H    0.189603
    41  H    0.250441
    42  H    0.271000
    43  H    0.254366
 Sum of Mulliken charges =  -1.00000

 Dipole moment (field-independent basis, Debye):
    X=              2.2150    Y=             -0.9312    Z=              0.0513  Tot=              2.4033
 Quadrupole moment (field-independent basis, Debye-Ang):
   XX=           -222.2943   YY=           -181.0055   ZZ=           -155.6717
   XY=              2.1072   XZ=             -0.3984   YZ=             -0.5276

 Summary of Natural Population Analysis:

                                       Natural Population
                Natural  -----------------------------------------------
    Atom  No    Charge         Core      Valence    Rydberg      Total
 -----------------------------------------------------------------------
      C    1    0.24856      1.99913     3.72369    0.02862     5.75144
      N    2   -0.69310      1.99934     5.66808    0.02569     7.69310
      C    3    0.90091      1.99945     3.06785    0.03179     5.09909
      O    4   -0.76127      1.99977     6.73237    0.02913     8.76127
      N    5   -0.70561      1.99940     5.68685    0.01937     7.70561
      C    6   -0.13543      1.99944     4.11170    0.02429     6.13543
      C    7   -0.36915      1.99950     4.34905    0.02060     6.36915
      C    8   -0.54358      1.99954     4.52926    0.01478     6.54358
      C    9   -0.21894      1.99911     4.19718    0.02265     6.21894
      C   10   -0.16465      1.99900     4.10880    0.05686     6.16465
      C   11   -0.09894      1.99890     4.07361    0.02642     6.09894
      C   12   -0.18697      1.99931     4.14501    0.04265     6.18697
      C   13   -0.25680      1.99916     4.23506    0.02257     6.25680
      H   14    0.46416      0.00000     0.52972    0.00612     0.53584
      H   15    0.45504      0.00000     0.53841    0.00655     0.54496
      H   16    0.17156      0.00000     0.82517    0.00327     0.82844
      H   17    0.15872      0.00000     0.83812    0.00316     0.84128
      H   18    0.19594      0.00000     0.80062    0.00344     0.80406
      H   19    0.18430      0.00000     0.81213    0.00357     0.81570
      H   20    0.17737      0.00000     0.82015    0.00248     0.82263
      H   21    0.18251      0.00000     0.81526    0.00222     0.81749
      H   22    0.17644      0.00000     0.82110    0.00246     0.82356
      H   23    0.25975      0.00000     0.73639    0.00386     0.74025
      H   24    0.25302      0.00000     0.74366    0.00332     0.74698
      C   25    1.09921      1.99924     2.84565    0.05590     4.90079
      C   26    1.09674      1.99923     2.85246    0.05157     4.90326
      H   27    0.21196      0.00000     0.78513    0.00291     0.78804
      F   28   -0.36897      1.99992     7.36018    0.00886     9.36897
      F   29   -0.37406      1.99992     7.36532    0.00882     9.37406
      F   30   -0.37706      1.99993     7.36936    0.00778     9.37706
      F   31   -0.35853      1.99992     7.35159    0.00702     9.35853
      F   32   -0.36745      1.99992     7.35959    0.00794     9.36745
      F   33   -0.36659      1.99992     7.35927    0.00740     9.36659
      O   34   -0.85761      1.99975     6.83503    0.02283     8.85761
      O   35   -0.83212      1.99976     6.80739    0.02498     8.83212
      C   36    0.89344      1.99963     3.06238    0.04455     5.10656
      C   37   -0.46762      1.99941     4.44609    0.02212     6.46762
      C   38   -0.54616      1.99955     4.53052    0.01609     6.54616
      H   39    0.18958      0.00000     0.80729    0.00313     0.81042
      H   40    0.18945      0.00000     0.80742    0.00312     0.81055
      H   41    0.18954      0.00000     0.80764    0.00282     0.81046
      H   42    0.16404      0.00000     0.83301    0.00295     0.83596
      H   43    0.18902      0.00000     0.80815    0.00282     0.81098
 =======================================================================
   * Total *   -0.99934     51.98716   147.30272    0.70946   199.99934

 Normal termination of Gaussian 16 at Tue Nov  3 19:15:40 2020.
