 Gaussian 09, Revision E.01,

 ----------------------------------------------------------------------
 # M062X/6-311+G* SCF=Tight INT(grid=ultrafine) OPT IOP(2/17=4) Empiric
 alDispersion=GD3 SCRF=(SMD,Solvent=n-Pentadecane) maxdisk=3221225472
 ----------------------------------------------------------------------

 -------------------------------------------------
 NM2_c2_carboxy.M062X_6-311pGd_opt_Pentadecane_GD3
 -------------------------------------------------
 Symbolic Z-matrix:
 Charge = -1 Multiplicity = 1

 SCF Done:  E(RM062X) =  -1516.16581832     A.U. after   16 cycles
 SCF Done:  E(RM062X) =  -1516.16581813     A.U. after   10 cycles
 SCF Done:  E(RM062X) =  -1516.16581855     A.U. after   10 cycles
 SCF Done:  E(RM062X) =  -1516.16581871     A.U. after   10 cycles
 SCF Done:  E(RM062X) =  -1516.16581872     A.U. after    9 cycles
 SCF Done:  E(RM062X) =  -1516.16581872     A.U. after    8 cycles
 SCF Done:  E(RM062X) =  -1516.16581873     A.U. after    8 cycles
 Optimization completed.
    -- Stationary point found.
 Normal termination of Gaussian 09 at Thu Nov 14 22:46:14 2019.
 Gaussian 09:  ES64L-G09RevE.01 30-Nov-2015

 ----------------------------------------------------------------------
 # M062X/6-311+G* SCF=Tight INT(grid=ultrafine) SCRF=(SMD,Solvent=n-Pen
 tadecane) EmpiricalDispersion=GD3 Freq=Noraman maxdisk=3221225472 geom
 =check guess=read IOP(2/17=4)
 ----------------------------------------------------------------------

 -------------------------------------------------
 NM2_c2_carboxy.M062X_6-311pGd_opt_Pentadecane_GD3
 -------------------------------------------------
 Structure from the checkpoint file:  "NM2_c2_carboxy.M062X_6-311pGd_opt_Pentadecane_GD3.chk"
 Charge = -1 Multiplicity = 1

                         Standard orientation:
 ---------------------------------------------------------------------
 Center     Atomic      Atomic             Coordinates (Angstroms)
 Number     Number       Type             X           Y           Z
 ---------------------------------------------------------------------
      1          6           0        0.281868   -0.883801   -0.002483
      2          7           0       -1.085757   -0.760071    0.007675
      3          6           0       -2.020554   -1.790660   -0.000872
      4          8           0       -1.721762   -2.981157   -0.016058
      5          7           0       -3.294156   -1.343239    0.014075
      6          6           0       -4.397780   -2.281216   -0.016569
      7          6           0       -5.719928   -1.536006    0.104598
      8          6           0       -6.907143   -2.491191    0.065695
      9          6           0        1.021315    0.320067    0.015959
     10          6           0        2.401510    0.315954    0.008935
     11          6           0        3.110754   -0.900225   -0.007499
     12          6           0        2.377331   -2.080941   -0.034829
     13          6           0        0.990238   -2.093526   -0.031730
     14          1           0       -1.441614    0.217569    0.031412
     15          1           0       -3.502746   -0.334471   -0.028594
     16          1           0       -4.291890   -3.000368    0.802893
     17          1           0       -4.376071   -2.862973   -0.946490
     18          1           0       -5.795469   -0.801915   -0.702833
     19          1           0       -5.723132   -0.963991    1.037224
     20          1           0       -6.934163   -3.052012   -0.873049
     21          1           0       -7.853234   -1.952697    0.156283
     22          1           0       -6.859232   -3.217097    0.882654
     23          1           0        0.473747    1.256567    0.032281
     24          1           0        0.452239   -3.028205   -0.049004
     25          6           0        4.606312   -0.994817   -0.042822
     26          6           0        3.092596    1.655648    0.065109
     27          1           0        2.902057   -3.028327   -0.053892
     28          9           0        5.211565   -0.140410    0.799252
     29          9           0        5.123797   -0.756612   -1.265090
     30          9           0        5.034563   -2.224581    0.299172
     31          9           0        2.276090    2.660085   -0.276271
     32          9           0        4.148109    1.725675   -0.763557
     33          9           0        3.547888    1.942061    1.298182
     34          8           0       -1.785616    1.900926    0.064265
     35          8           0       -3.956591    1.407726   -0.115049
     36          6           0       -3.002837    2.212085   -0.028423
     37          6           0       -3.311339    3.713233   -0.036113
     38          6           0       -4.791684    4.054618   -0.111968
     39          1           0       -2.764548    4.146427   -0.879733
     40          1           0       -2.852884    4.140760    0.860912
     41          1           0       -5.242109    3.641047   -1.015987
     42          1           0       -4.947568    5.137533   -0.115534
     43          1           0       -5.334303    3.634061    0.736825
 ---------------------------------------------------------------------

 SCF Done:  E(RM062X) =  -1516.16581873     A.U. after    2 cycles

 The electronic state is 1-A.
 Alpha  occ. eigenvalues --  -25.23946 -25.23684 -25.23645 -25.23643 -25.23324
 Alpha  occ. eigenvalues --  -25.23311 -19.52619 -19.50159 -19.49924 -14.71092
 Alpha  occ. eigenvalues --  -14.69073 -10.76469 -10.76377 -10.60955 -10.56279
 Alpha  occ. eigenvalues --  -10.55801 -10.54244 -10.53199 -10.51951 -10.51209
 Alpha  occ. eigenvalues --  -10.51049 -10.50037 -10.48293 -10.48226 -10.46800
 Alpha  occ. eigenvalues --  -10.46489  -1.43279  -1.42839  -1.33879  -1.33493
 Alpha  occ. eigenvalues --   -1.33367  -1.33163  -1.11459  -1.09228  -1.00064
 Alpha  occ. eigenvalues --   -0.99293  -0.96599  -0.93806  -0.85011  -0.84608
 Alpha  occ. eigenvalues --   -0.82659  -0.80106  -0.77969  -0.76049  -0.72945
 Alpha  occ. eigenvalues --   -0.69591  -0.68556  -0.66534  -0.65609  -0.65567
 Alpha  occ. eigenvalues --   -0.65400  -0.64912  -0.64269  -0.63336  -0.62002
 Alpha  occ. eigenvalues --   -0.58393  -0.57049  -0.54311  -0.54020  -0.53933
 Alpha  occ. eigenvalues --   -0.53260  -0.53185  -0.51928  -0.50623  -0.50309
 Alpha  occ. eigenvalues --   -0.49871  -0.49705  -0.48877  -0.48725  -0.47663
 Alpha  occ. eigenvalues --   -0.47567  -0.47313  -0.47117  -0.46829  -0.46506
 Alpha  occ. eigenvalues --   -0.46246  -0.45129  -0.44943  -0.43810  -0.43218
 Alpha  occ. eigenvalues --   -0.42567  -0.41730  -0.40126  -0.39992  -0.39728
 Alpha  occ. eigenvalues --   -0.38802  -0.37803  -0.37467  -0.36036  -0.35276
 Alpha  occ. eigenvalues --   -0.34932  -0.33933  -0.33382  -0.28855  -0.28607
 Alpha  occ. eigenvalues --   -0.26139  -0.25681  -0.25104  -0.24948  -0.21971
 Alpha virt. eigenvalues --    0.03741   0.05043   0.05662   0.05999   0.06502
 Alpha virt. eigenvalues --    0.07305   0.07358   0.07866   0.08029   0.08479
 Alpha virt. eigenvalues --    0.08691   0.09004   0.09646   0.09753   0.10434

 Mulliken charges:
               1
     1  C   -0.678621
     2  N   -0.462150
     3  C    0.116659
     4  O   -0.402050
     5  N   -0.431275
     6  C   -0.504634
     7  C   -0.070093
     8  C   -1.150417
     9  C   -0.586463
    10  C   -0.076829
    11  C   -0.592821
    12  C   -0.336742
    13  C   -0.270963
    14  H    0.471830
    15  H    0.474233
    16  H    0.241528
    17  H    0.252530
    18  H    0.271203
    19  H    0.273805
    20  H    0.254801
    21  H    0.265485
    22  H    0.253768
    23  H    0.390625
    24  H    0.309297
    25  C    0.974620
    26  C    1.103673
    27  H    0.277513
    28  F   -0.082636
    29  F   -0.057777
    30  F   -0.134106
    31  F   -0.118127
    32  F   -0.078557
    33  F   -0.050244
    34  O   -0.499623
    35  O   -0.436272
    36  C    0.036329
    37  C   -0.191271
    38  C   -1.030602
    39  H    0.255067
    40  H    0.254601
    41  H    0.259235
    42  H    0.245574
    43  H    0.259899
 Sum of Mulliken charges =  -1.00000

 Dipole moment (field-independent basis, Debye):
    X=              1.5546    Y=             -1.4433    Z=              0.0270  Tot=              2.1215
 Quadrupole moment (field-independent basis, Debye-Ang):
   XX=           -216.1965   YY=           -178.4719   ZZ=           -156.9855
   XY=              2.3303   XZ=             -0.7293   YZ=             -0.2628

  Exact polarizability: 328.556   4.085 244.423   0.671   1.522 150.746
 Approx polarizability: 299.267   2.703 256.668   1.107   1.791 182.462

                      1                      2                      3
                      A                      A                      A
 Frequencies --     18.5282                22.8535                33.8538
 Red. masses --      5.9050                 4.8399                 3.1312
 Frc consts  --      0.0012                 0.0015                 0.0021
 IR Inten    --      0.1411                 0.2261                 0.4139

                      4                      5                      6
                      A                      A                      A
 Frequencies --     36.5399                43.4162                51.8929
 Red. masses --      2.5956                 6.5682                 5.3752
 Frc consts  --      0.0020                 0.0073                 0.0085
 IR Inten    --      0.2990                 1.7658                 2.1057

                      7                      8                      9
                      A                      A                      A
 Frequencies --     60.1746                67.7592                71.9647
 Red. masses --      3.9404                 3.8095                 3.4537
 Frc consts  --      0.0084                 0.0103                 0.0105
 IR Inten    --      0.3984                 2.1004                 1.6561

                     10                     11                     12
                      A                      A                      A
 Frequencies --     76.5066                77.7962                95.2477
 Red. masses --      4.9191                 4.9673                18.2560
 Frc consts  --      0.0170                 0.0177                 0.0976
 IR Inten    --      8.4032                 0.5551                 0.0742

                     13                     14                     15
                      A                      A                      A
 Frequencies --    103.3637               120.0791               135.5048
 Red. masses --      6.4557                 4.9893                 8.0258
 Frc consts  --      0.0406                 0.0424                 0.0868
 IR Inten    --      2.9580                 3.9559                15.4398

                     16                     17                     18
                      A                      A                      A
 Frequencies --    145.3721               165.5945               174.3875
 Red. masses --      6.5827                12.6343                 4.5171
 Frc consts  --      0.0820                 0.2041                 0.0809
 IR Inten    --      2.5143                 0.1193                14.9805

                     19                     20                     21
                      A                      A                      A
 Frequencies --    181.7067               202.5792               218.4919
 Red. masses --      3.8620                 7.8977                 1.1438
 Frc consts  --      0.0751                 0.1910                 0.0322
 IR Inten    --     13.8484                 1.2814                 0.9142

                     22                     23                     24
                      A                      A                      A
 Frequencies --    234.7845               240.7046               249.3079
 Red. masses --      4.1142                 1.3553                 6.4003
 Frc consts  --      0.1336                 0.0463                 0.2344
 IR Inten    --      0.4319                 0.0573                 2.2706

                     25                     26                     27
                      A                      A                      A
 Frequencies --    262.3292               298.0148               323.2290
 Red. masses --     10.7656                 3.9974                 8.0496
 Frc consts  --      0.4365                 0.2092                 0.4955
 IR Inten    --     14.9091                12.5641                 0.9318

                     28                     29                     30
                      A                      A                      A
 Frequencies --    342.5098               349.0809               353.3612
 Red. masses --     13.4270                 4.9935                 6.0790
 Frc consts  --      0.9281                 0.3585                 0.4472
 IR Inten    --      0.2103                13.5967                 1.5555

                     31                     32                     33
                      A                      A                      A
 Frequencies --    425.5934               428.6704               474.0858
 Red. masses --      6.6496                 6.3894                 7.2904
 Frc consts  --      0.7096                 0.6918                 0.9654
 IR Inten    --     20.2646                 9.8512                 2.5700

                     34                     35                     36
                      A                      A                      A
 Frequencies --    482.7403               508.7298               525.7913
 Red. masses --      5.9356                 5.6794                 5.6885
 Frc consts  --      0.8150                 0.8660                 0.9266
 IR Inten    --      1.4909                46.0679                25.1110

                     37                     38                     39
                      A                      A                      A
 Frequencies --    541.1574               574.8820               587.7230
 Red. masses --     11.1514                14.6944                 1.9185
 Frc consts  --      1.9241                 2.8613                 0.3904
 IR Inten    --      2.4823                 2.5730                 0.7289

                     40                     41                     42
                      A                      A                      A
 Frequencies --    607.5577               622.6827               659.9223
 Red. masses --      6.1418                 8.7541                 5.2779
 Frc consts  --      1.3357                 1.9998                 1.3542
 IR Inten    --     11.1364                 2.8537                18.4629

                     43                     44                     45
                      A                      A                      A
 Frequencies --    660.5283               665.2617               676.2531
 Red. masses --      5.4774                 6.5724                 8.8565
 Frc consts  --      1.4080                 1.7138                 2.3863
 IR Inten    --     13.9580                13.9862                10.1784

                     46                     47                     48
                      A                      A                      A
 Frequencies --    751.6463               753.6503               764.1870
 Red. masses --      1.1250                 4.8013                 6.7450
 Frc consts  --      0.3745                 1.6068                 2.3208
 IR Inten    --      6.6419                 4.7043                 8.6978

                     49                     50                     51
                      A                      A                      A
 Frequencies --    775.2150               780.4509               809.5360
 Red. masses --      2.3411                 7.8546                 2.7147
 Frc consts  --      0.8289                 2.8188                 1.0482
 IR Inten    --     38.1967                 8.2327                11.5779

                     52                     53                     54
                      A                      A                      A
 Frequencies --    814.1660               824.8582               869.7916
 Red. masses --      3.1860                 1.4738                 1.4473
 Frc consts  --      1.2443                 0.5908                 0.6451
 IR Inten    --      9.5767                12.1694                63.2112

                     55                     56                     57
                      A                      A                      A
 Frequencies --    891.4903               900.5987               917.1630
 Red. masses --      3.9640                 1.1681                 2.3201
 Frc consts  --      1.8562                 0.5582                 1.1499
 IR Inten    --     54.9076                 3.3525                25.3242

                     58                     59                     60
                      A                      A                      A
 Frequencies --    942.1642               947.2035               979.0918
 Red. masses --      1.2726                 2.9132                 1.1813
 Frc consts  --      0.6656                 1.5400                 0.6672
 IR Inten    --      3.9950                16.0832               109.2343

                     61                     62                     63
                      A                      A                      A
 Frequencies --   1003.0968              1024.4730              1043.6851
 Red. masses --      1.3081                 1.6852                 6.4727
 Frc consts  --      0.7755                 1.0421                 4.1541
 IR Inten    --     12.4770                 6.0228                42.5415

                     64                     65                     66
                      A                      A                      A
 Frequencies --   1052.7383              1082.3086              1110.2355
 Red. masses --      4.1162                 2.7487                 1.7942
 Frc consts  --      2.6878                 1.8970                 1.3030
 IR Inten    --     50.4066                35.2715                 0.8691

                     67                     68                     69
                      A                      A                      A
 Frequencies --   1110.9787              1125.8043              1145.9656
 Red. masses --      2.3513                 3.3684                 3.4037
 Frc consts  --      1.7099                 2.5153                 2.6335
 IR Inten    --      5.3608               265.7263                74.4893

                     70                     71                     72
                      A                      A                      A
 Frequencies --   1153.3039              1161.5955              1180.1087
 Red. masses --      6.5093                 2.7088                 1.6618
 Frc consts  --      5.1012                 2.1534                 1.3635
 IR Inten    --     29.0693                 7.4080                 4.3792

                     73                     74                     75
                      A                      A                      A
 Frequencies --   1183.3516              1187.7371              1198.6675
 Red. masses --     11.5162                 3.9648                 2.0867
 Frc consts  --      9.5014                 3.2954                 1.7665
 IR Inten    --    597.2861                34.9445               229.3032

                     76                     77                     78
                      A                      A                      A
 Frequencies --   1219.6744              1282.0263              1292.4573
 Red. masses --      8.5453                 1.1919                 1.1786
 Frc consts  --      7.4897                 1.1542                 1.1600
 IR Inten    --    379.1308                 0.0361                 0.4680

                     79                     80                     81
                      A                      A                      A
 Frequencies --   1293.4470              1316.6560              1324.8512
 Red. masses --      2.1766                 2.4165                 1.6371
 Frc consts  --      2.1455                 2.4682                 1.6930
 IR Inten    --    631.5843               354.1343               104.3576

                     82                     83                     84
                      A                      A                      A
 Frequencies --   1332.3222              1333.4820              1344.5513
 Red. masses --      1.2327                 1.5757                 4.7163
 Frc consts  --      1.2892                 1.6508                 5.0235
 IR Inten    --    175.5675                37.8153                81.9241

                     85                     86                     87
                      A                      A                      A
 Frequencies --   1346.8171              1367.8580              1392.4717
 Red. masses --      2.1391                 2.4442                 3.9117
 Frc consts  --      2.2861                 2.6944                 4.4688
 IR Inten    --    699.2197                45.5340               615.0144

                     88                     89                     90
                      A                      A                      A
 Frequencies --   1420.0229              1422.1474              1429.4826
 Red. masses --      1.3130                 1.3164                 1.6302
 Frc consts  --      1.5599                 1.5687                 1.9627
 IR Inten    --     18.5865                 9.0729                12.2558

                     91                     92                     93
                      A                      A                      A
 Frequencies --   1464.1336              1471.2285              1479.6449
 Red. masses --      3.1990                 4.1813                 1.3132
 Frc consts  --      4.0405                 5.3324                 1.6939
 IR Inten    --    407.9093                79.3987                49.5059

                     94                     95                     96
                      A                      A                      A
 Frequencies --   1500.0354              1507.7037              1516.5075
 Red. masses --      1.0657                 1.0381                 1.0911
 Frc consts  --      1.4128                 1.3903                 1.4784
 IR Inten    --      8.8812                 9.3650                58.4686

                     97                     98                     99
                      A                      A                      A
 Frequencies --   1517.9125              1519.2007              1534.0963
 Red. masses --      1.0472                 1.0607                 1.0860
 Frc consts  --      1.4216                 1.4423                 1.5059
 IR Inten    --      8.2341                 3.1476                11.3592

                    100                    101                    102
                      A                      A                      A
 Frequencies --   1579.1030              1609.7573              1636.2632
 Red. masses --      3.6299                 3.2099                 3.5007
 Frc consts  --      5.3329                 4.9008                 5.5221
 IR Inten    --     39.0858               180.6431               102.9661

                    103                    104                    105
                      A                      A                      A
 Frequencies --   1668.5452              1682.7641              1710.9614
 Red. masses --      3.3691                 3.5341                 2.9505
 Frc consts  --      5.5264                 5.8963                 5.0890
 IR Inten    --   1384.1622                86.0473               410.9939

                    106                    107                    108
                      A                      A                      A
 Frequencies --   1786.4609              3032.0246              3041.2101
 Red. masses --      2.4703                 1.0975                 1.0626
 Frc consts  --      4.6450                 5.9444                 5.7903
 IR Inten    --    441.6502              1372.8145                89.8200

                    109                    110                    111
                      A                      A                      A
 Frequencies --   3060.2528              3065.2311              3073.1188
 Red. masses --      1.0371                 1.0413                 1.1000
 Frc consts  --      5.7227                 5.7645                 6.1209
 IR Inten    --     46.4555                31.8026                31.1041

                    112                    113                    114
                      A                      A                      A
 Frequencies --   3074.1593              3078.6283              3105.1702
 Red. masses --      1.0606                 1.0613                 1.1012
 Frc consts  --      5.9056                 5.9268                 6.2557
 IR Inten    --     18.6157                32.2382                10.0553

                    115                    116                    117
                      A                      A                      A
 Frequencies --   3109.6882              3132.0726              3132.5438
 Red. masses --      1.1032                 1.0985                 1.1041
 Frc consts  --      6.2854                 6.3493                 6.3831
 IR Inten    --      0.5250                53.4617                71.2795

                    118                    119                    120
                      A                      A                      A
 Frequencies --   3133.7029              3149.5126              3219.7678
 Red. masses --      1.1014                 1.1028                 1.0931
 Frc consts  --      6.3727                 6.4454                 6.6769
 IR Inten    --     39.0156                41.7381                 5.0238

                    121                    122                    123
                      A                      A                      A
 Frequencies --   3235.8167              3236.7882              3284.8232
 Red. masses --      1.0904                 1.0908                 1.0934
 Frc consts  --      6.7269                 6.7334                 6.9511
 IR Inten    --   1429.2180                70.2766                 8.2207

 - Thermochemistry -
 -------------------
 Temperature   298.150 Kelvin.  Pressure   1.00000 Atm.
 Atom     1 has atomic number  6 and mass  12.00000

 Molecular mass:   387.11434 amu.
 Principal axes and moments of inertia in atomic units:
                           1         2         3
     Eigenvalues --  5988.67780********************
           X            1.00000  -0.00137  -0.00009
           Y            0.00137   1.00000  -0.00174
           Z            0.00009   0.00174   1.00000
 This molecule is an asymmetric top.
 Rotational symmetry number  1.
 Warning -- assumption of classical behavior for rotation
           may cause significant error
 Rotational temperatures (Kelvin)      0.01446     0.00437     0.00345
 Rotational constants (GHZ):           0.30136     0.09110     0.07189
 Zero-point vibrational energy     844269.7 (Joules/Mol)
                                  201.78530 (Kcal/Mol)
 Warning -- explicit consideration of  40 degrees of freedom as
           vibrations may cause significant error
 Vibrational temperatures:     26.66    32.88    48.71    52.57    62.47
          (Kelvin)             74.66    86.58    97.49   103.54   110.08
                              111.93   137.04   148.72   172.77   194.96
                              209.16   238.25   250.90   261.44   291.47
                              314.36   337.80   346.32   358.70   377.43
                              428.78   465.05   492.79   502.25   508.41
                              612.33   616.76   682.10   694.55   731.95
                              756.50   778.60   827.13   845.60   874.14
                              895.90   949.48   950.35   957.16   972.98
                             1081.45  1084.33  1099.49  1115.36  1122.89
                             1164.74  1171.40  1186.79  1251.43  1282.65
                             1295.76  1319.59  1355.56  1362.81  1408.69
                             1443.23  1473.99  1501.63  1514.65  1557.20
                             1597.38  1598.45  1619.78  1648.79  1659.35
                             1671.27  1697.91  1702.58  1708.89  1724.61
                             1754.84  1844.55  1859.56  1860.98  1894.37
                             1906.16  1916.91  1918.58  1934.51  1937.77
                             1968.04  2003.45  2043.09  2046.15  2056.70
                             2106.56  2116.77  2128.88  2158.21  2169.25
                             2181.91  2183.93  2185.79  2207.22  2271.97
                             2316.08  2354.21  2400.66  2421.12  2461.69
                             2570.32  4362.40  4375.62  4403.02  4410.18
                             4421.53  4423.02  4429.45  4467.64  4474.14
                             4506.35  4507.03  4508.69  4531.44  4632.52
                             4655.61  4657.01  4726.12

 Zero-point correction=                           0.321565 (Hartree/Particle)
 Thermal correction to Energy=                    0.348230
 Thermal correction to Enthalpy=                  0.349174
 Thermal correction to Gibbs Free Energy=         0.260213
 Sum of electronic and zero-point Energies=          -1515.844253
 Sum of electronic and thermal Energies=             -1515.817589
 Sum of electronic and thermal Enthalpies=           -1515.816645
 Sum of electronic and thermal Free Energies=        -1515.905605

                     E (Thermal)             CV                S
                      KCal/Mol        Cal/Mol-Kelvin    Cal/Mol-Kelvin
 Total                  218.517             94.188            187.233
 Electronic               0.000              0.000              0.000
 Translational            0.889              2.981             43.753
 Rotational               0.889              2.981             36.342
 Vibrational            216.740             88.226            107.139
 Vibration     1          0.593              1.986              6.786
 Vibration     2          0.593              1.985              6.369
 Vibration     3          0.594              1.983              5.590
 Vibration     4          0.594              1.982              5.438
 Vibration     5          0.595              1.980              5.097
 Vibration     6          0.596              1.977              4.744
 Vibration     7          0.597              1.973              4.451
 Vibration     8          0.598              1.970              4.217
 Vibration     9          0.598              1.967              4.099
 Vibration    10          0.599              1.965              3.979
 Vibration    11          0.599              1.964              3.946
 Vibration    12          0.603              1.953              3.549
 Vibration    13          0.605              1.947              3.390
 Vibration    14          0.609              1.933              3.099
 Vibration    15          0.613              1.918              2.866
 Vibration    16          0.617              1.908              2.732
 Vibration    17          0.624              1.885              2.485
 Vibration    18          0.627              1.874              2.388
 Vibration    19          0.630              1.865              2.311
 Vibration    20          0.639              1.836              2.110
 Vibration    21          0.646              1.813              1.972
 Vibration    22          0.655              1.788              1.842
 Vibration    23          0.658              1.778              1.798
 Vibration    24          0.662              1.764              1.735
 Vibration    25          0.670              1.742              1.646
 Vibration    26          0.691              1.677              1.428
 Vibration    27          0.708              1.629              1.294
 Vibration    28          0.722              1.590              1.200
 Vibration    29          0.726              1.577              1.170
 Vibration    30          0.730              1.568              1.151
 Vibration    31          0.787              1.415              0.873
 Vibration    32          0.790              1.408              0.863
 Vibration    33          0.831              1.308              0.726
 Vibration    34          0.839              1.288              0.703
 Vibration    35          0.864              1.231              0.637
 Vibration    36          0.881              1.193              0.597
 Vibration    37          0.896              1.159              0.563
 Vibration    38          0.931              1.086              0.495
 Vibration    39          0.945              1.058              0.471
 Vibration    40          0.966              1.016              0.437

 Normal termination of Gaussian 09 at Fri Nov 15 00:47:47 2019.
