 Gaussian 09, Revision E.01,

 ----------------------------------------------------------------------
 # M062X/6-311+G* SCF=Tight INT(grid=ultrafine) OPT IOP(2/17=4) Empiric
 alDispersion=GD3 maxdisk=3221225472
 ----------------------------------------------------------------------

 ----------------------------------
 NM2_carboxy.M062X_6-311pGd_opt_GD3
 ----------------------------------
 Symbolic Z-matrix:
 Charge = -1 Multiplicity = 1

 SCF Done:  E(RM062X) =  -1516.12845318     A.U. after   17 cycles
 SCF Done:  E(RM062X) =  -1516.12845312     A.U. after    9 cycles
 SCF Done:  E(RM062X) =  -1516.12845319     A.U. after   10 cycles
 Optimization completed.
    -- Stationary point found.
 Normal termination of Gaussian 09 at Thu Nov 14 22:15:31 2019.
 Gaussian 09:  ES64L-G09RevE.01 30-Nov-2015

 ----------------------------------------------------------------------
 # M062X/6-311+G* SCF=Tight INT(grid=ultrafine) EmpiricalDispersion=GD3
  Freq=Noraman maxdisk=3221225472 geom=check guess=read IOP(2/17=4)
 ----------------------------------------------------------------------

 ----------------------------------
 NM2_carboxy.M062X_6-311pGd_opt_GD3
 ----------------------------------
 Structure from the checkpoint file:  "NM2_carboxy.M062X_6-311pGd_opt_GD3.chk"
 Charge = -1 Multiplicity = 1

                         Standard orientation:
 ---------------------------------------------------------------------
 Center     Atomic      Atomic             Coordinates (Angstroms)
 Number     Number       Type             X           Y           Z
 ---------------------------------------------------------------------
      1          6           0        0.271964    0.118092   -0.029188
      2          7           0       -1.073168   -0.146710   -0.034234
      3          6           0       -1.689603   -1.394865    0.015447
      4          8           0       -1.079581   -2.456709    0.068123
      5          7           0       -3.038026   -1.303907   -0.008460
      6          6           0       -3.852922   -2.493055    0.097348
      7          6           0       -5.300817   -2.157771   -0.237550
      8          6           0       -6.208745   -3.374519   -0.091054
      9          6           0        1.284496   -0.860975   -0.002878
     10          6           0        2.621290   -0.491647   -0.002396
     11          6           0        3.002168    0.859381   -0.016563
     12          6           0        1.991676    1.821200   -0.052697
     13          6           0        0.656599    1.470841   -0.058514
     14          1           0       -1.684991    0.694049   -0.064828
     15          1           0       -3.508572   -0.386820    0.029339
     16          1           0       -3.789058   -2.918184    1.108713
     17          1           0       -3.465049   -3.257126   -0.583616
     18          1           0       -5.345114   -1.767985   -1.258898
     19          1           0       -5.641070   -1.343380    0.408693
     20          1           0       -5.887840   -4.189032   -0.747139
     21          1           0       -7.244179   -3.133353   -0.341966
     22          1           0       -6.195960   -3.754592    0.934478
     23          1           0        1.002304   -1.902167    0.011535
     24          1           0       -0.119611    2.229284   -0.082156
     25          6           0        4.424497    1.333676   -0.042312
     26          6           0        3.631930   -1.611233    0.057650
     27          1           0        2.259950    2.870103   -0.069306
     28          9           0        5.225535    0.662960    0.801392
     29          9           0        4.518240    2.632756    0.306734
     30          9           0        4.991622    1.244859   -1.262105
     31          9           0        3.102562   -2.791628   -0.292238
     32          9           0        4.135480   -1.777242    1.294022
     33          9           0        4.675639   -1.407839   -0.763805
     34          8           0       -2.490630    2.219634   -0.092402
     35          8           0       -4.441693    1.144081    0.107031
     36          6           0       -3.743923    2.177464    0.014138
     37          6           0       -4.459517    3.536243    0.028488
     38          6           0       -5.973702    3.445120    0.155121
     39          1           0       -4.169234    4.060837   -0.887200
     40          1           0       -4.027512    4.117336    0.849282
     41          1           0       -6.396305    2.869980   -0.670361
     42          1           0       -6.434144    4.437881    0.159260
     43          1           0       -6.254082    2.928936    1.074756
 ---------------------------------------------------------------------

 SCF Done:  E(RM062X) =  -1516.12845319     A.U. after    2 cycles

 The electronic state is 1-A.
 Alpha  occ. eigenvalues --  -25.19109 -25.18820 -25.18794 -25.18750 -25.18434
 Alpha  occ. eigenvalues --  -25.18434 -19.47366 -19.44947 -19.44702 -14.65897
 Alpha  occ. eigenvalues --  -14.63870 -10.71615 -10.71465 -10.55738 -10.51152
 Alpha  occ. eigenvalues --  -10.50727 -10.49314 -10.48313 -10.47101 -10.46522
 Alpha  occ. eigenvalues --  -10.45734 -10.45301 -10.44446 -10.43881 -10.42149
 Alpha  occ. eigenvalues --  -10.42042  -1.38390  -1.37951  -1.28995  -1.28608
 Alpha  occ. eigenvalues --   -1.28477  -1.28287  -1.06252  -1.04016  -0.94922
 Alpha  occ. eigenvalues --   -0.94161  -0.91559  -0.88823  -0.80119  -0.79744
 Alpha  occ. eigenvalues --   -0.78092  -0.75427  -0.72930  -0.71326  -0.68348
 Alpha  occ. eigenvalues --   -0.64555  -0.63962  -0.61802  -0.60955  -0.60700
 Alpha  occ. eigenvalues --   -0.60497  -0.60029  -0.59037  -0.58643  -0.56469
 Alpha  occ. eigenvalues --   -0.54265  -0.51877  -0.49351  -0.49165  -0.48885
 Alpha  occ. eigenvalues --   -0.48386  -0.48298  -0.46884  -0.45833  -0.45493
 Alpha  occ. eigenvalues --   -0.45095  -0.44841  -0.43907  -0.43816  -0.42889
 Alpha  occ. eigenvalues --   -0.42464  -0.42442  -0.42240  -0.42064  -0.41642
 Alpha  occ. eigenvalues --   -0.41363  -0.40507  -0.40001  -0.38857  -0.38057
 Alpha  occ. eigenvalues --   -0.37999  -0.37009  -0.35393  -0.35244  -0.34762
 Alpha  occ. eigenvalues --   -0.34212  -0.33233  -0.32658  -0.31399  -0.31042
 Alpha  occ. eigenvalues --   -0.30347  -0.29269  -0.28416  -0.23680  -0.23577
 Alpha  occ. eigenvalues --   -0.20888  -0.20441  -0.19937  -0.19755  -0.16845
 Alpha virt. eigenvalues --    0.08492   0.09142   0.09955   0.10192   0.10308
 Alpha virt. eigenvalues --    0.11371   0.11449   0.11719   0.11953   0.12443
 Alpha virt. eigenvalues --    0.12844   0.13134   0.13571   0.13851   0.14411

 Mulliken charges:
               1
     1  C   -0.678830
     2  N   -0.432805
     3  C    0.118751
     4  O   -0.388793
     5  N   -0.352147
     6  C   -0.468314
     7  C   -0.110358
     8  C   -1.093429
     9  C    0.126826
    10  C   -0.808342
    11  C   -1.288943
    12  C    0.153043
    13  C   -0.070567
    14  H    0.468131
    15  H    0.454770
    16  H    0.241019
    17  H    0.236596
    18  H    0.264204
    19  H    0.280291
    20  H    0.245841
    21  H    0.253530
    22  H    0.247817
    23  H    0.343454
    24  H    0.344625
    25  C    1.125844
    26  C    0.867358
    27  H    0.264753
    28  F   -0.081592
    29  F   -0.128200
    30  F   -0.052279
    31  F   -0.110310
    32  F   -0.048248
    33  F   -0.080237
    34  O   -0.477722
    35  O   -0.429998
    36  C   -0.004405
    37  C   -0.152409
    38  C   -1.013206
    39  H    0.244800
    40  H    0.243929
    41  H    0.257859
    42  H    0.230641
    43  H    0.257049
 Sum of Mulliken charges =  -1.00000

 Dipole moment (field-independent basis, Debye):
    X=              1.8744    Y=             -0.0413    Z=             -0.1213  Tot=              1.8787
 Quadrupole moment (field-independent basis, Debye-Ang):
   XX=           -230.4854   YY=           -178.0760   ZZ=           -157.2240
   XY=             11.1668   XZ=              0.5984   YZ=              0.7774

  Exact polarizability: 298.002  16.907 223.002  -0.951  -2.505 136.642
 Approx polarizability: 296.288  14.771 263.185  -1.062  -3.367 183.159

                      1                      2                      3
                      A                      A                      A
 Frequencies --     15.1115                16.4315                28.5157
 Red. masses --      5.3044                 4.3001                 2.7232
 Frc consts  --      0.0007                 0.0007                 0.0013
 IR Inten    --      0.0141                 0.6679                 0.1251

                      4                      5                      6
                      A                      A                      A
 Frequencies --     39.3655                43.9032                49.6059
 Red. masses --      6.8020                 2.7557                 5.6205
 Frc consts  --      0.0062                 0.0031                 0.0081
 IR Inten    --      0.4203                 0.0671                 1.6652

                      7                      8                      9
                      A                      A                      A
 Frequencies --     54.3309                58.0110                63.7697
 Red. masses --      5.5536                 3.9672                 2.7006
 Frc consts  --      0.0097                 0.0079                 0.0065
 IR Inten    --      1.0034                 2.2600                 0.4973

                     10                     11                     12
                      A                      A                      A
 Frequencies --     71.1934                78.3063                93.4318
 Red. masses --      8.3189                 5.3841                18.2846
 Frc consts  --      0.0248                 0.0195                 0.0940
 IR Inten    --      0.1821                 6.0837                 0.1424

                     13                     14                     15
                      A                      A                      A
 Frequencies --     94.8429               115.2719               126.0236
 Red. masses --      6.4466                 4.9445                 7.6409
 Frc consts  --      0.0342                 0.0387                 0.0715
 IR Inten    --      5.6051                 1.7227                 9.5892

                     16                     17                     18
                      A                      A                      A
 Frequencies --    145.4543               166.8036               170.1205
 Red. masses --      6.9616                 4.2169                14.6038
 Frc consts  --      0.0868                 0.0691                 0.2490
 IR Inten    --      1.0613                11.3010                 1.2553

                     19                     20                     21
                      A                      A                      A
 Frequencies --    188.7164               208.2183               222.2315
 Red. masses --      3.9984                 7.6593                 1.1234
 Frc consts  --      0.0839                 0.1956                 0.0327
 IR Inten    --     14.4189                 1.3339                 0.4578

                     22                     23                     24
                      A                      A                      A
 Frequencies --    234.3476               237.6705               243.3039
 Red. masses --      3.4652                 1.6432                 4.4300
 Frc consts  --      0.1121                 0.0547                 0.1545
 IR Inten    --      0.0533                 1.5016                 5.7752

                     25                     26                     27
                      A                      A                      A
 Frequencies --    271.1938               299.1638               323.8457
 Red. masses --      6.6759                 4.0074                 8.2317
 Frc consts  --      0.2893                 0.2113                 0.5086
 IR Inten    --      5.2771                13.3317                 0.7420

                     28                     29                     30
                      A                      A                      A
 Frequencies --    343.4236               346.1931               389.4580
 Red. masses --     13.8963                 4.9268                 8.2382
 Frc consts  --      0.9656                 0.3479                 0.7362
 IR Inten    --      0.1810                11.1414                 1.7031

                     31                     32                     33
                      A                      A                      A
 Frequencies --    401.2183               421.7176               466.9444
 Red. masses --      6.0111                 5.5114                 7.3403
 Frc consts  --      0.5701                 0.5775                 0.9430
 IR Inten    --     26.8548                 1.2908                 7.7038

                     34                     35                     36
                      A                      A                      A
 Frequencies --    480.8475               510.7520               523.5762
 Red. masses --      5.9179                 5.9607                 5.6974
 Frc consts  --      0.8062                 0.9161                 0.9202
 IR Inten    --      1.4723                36.0427                19.5881

                     37                     38                     39
                      A                      A                      A
 Frequencies --    543.0724               573.6648               586.3626
 Red. masses --     12.0130                14.5817                 1.9376
 Frc consts  --      2.0875                 2.8273                 0.3925
 IR Inten    --      1.6740                 2.7615                 0.4209

                     40                     41                     42
                      A                      A                      A
 Frequencies --    607.2378               621.6244               659.1522
 Red. masses --      6.3846                 8.7787                 5.6603
 Frc consts  --      1.3871                 1.9987                 1.4490
 IR Inten    --      8.1315                 0.9691                28.2457

                     43                     44                     45
                      A                      A                      A
 Frequencies --    661.4264               664.8323               683.4188
 Red. masses --      5.7244                 5.5827                 9.3497
 Frc consts  --      1.4755                 1.4538                 2.5729
 IR Inten    --     21.2154                 2.0020                16.0455

                     46                     47                     48
                      A                      A                      A
 Frequencies --    750.1631               756.9945               768.8399
 Red. masses --      1.1007                 5.0112                 3.9384
 Frc consts  --      0.3649                 1.6919                 1.3717
 IR Inten    --      2.8464                 5.7764                13.6469

                     49                     50                     51
                      A                      A                      A
 Frequencies --    775.8641               781.9861               797.2158
 Red. masses --      7.0361                 4.2039                 7.6718
 Frc consts  --      2.4955                 1.5146                 2.8728
 IR Inten    --      8.5861                25.8384                 5.5933

                     52                     53                     54
                      A                      A                      A
 Frequencies --    817.1174               826.3506               877.2756
 Red. masses --      1.6582                 1.4552                 1.3957
 Frc consts  --      0.6523                 0.5855                 0.6329
 IR Inten    --      4.0822                12.7388                14.0329

                     55                     56                     57
                      A                      A                      A
 Frequencies --    889.6877               900.3035               921.7076
 Red. masses --      4.0637                 1.1748                 1.8311
 Frc consts  --      1.8951                 0.5610                 0.9165
 IR Inten    --     47.8477                 3.8363                 9.7592

                     58                     59                     60
                      A                      A                      A
 Frequencies --    947.6048               957.5597               973.6801
 Red. masses --      1.3993                 4.8741                 1.1070
 Frc consts  --      0.7403                 2.6332                 0.6184
 IR Inten    --     29.9460                 4.1933               100.1409

                     61                     62                     63
                      A                      A                      A
 Frequencies --   1016.5224              1020.0951              1046.3570
 Red. masses --      1.2842                 1.6842                 6.5478
 Frc consts  --      0.7818                 1.0326                 4.2238
 IR Inten    --      6.3140                 3.6242                34.6019

                     64                     65                     66
                      A                      A                      A
 Frequencies --   1047.7580              1078.7729              1109.6708
 Red. masses --      3.9656                 2.7689                 1.7867
 Frc consts  --      2.5650                 1.8986                 1.2963
 IR Inten    --     37.7574                21.0649                 0.9739

                     67                     68                     69
                      A                      A                      A
 Frequencies --   1110.7588              1129.0879              1152.5057
 Red. masses --      2.3655                 3.3533                 2.6051
 Frc consts  --      1.7195                 2.5187                 2.0387
 IR Inten    --      3.6642               199.4874                36.1880

                     70                     71                     72
                      A                      A                      A
 Frequencies --   1158.7294              1169.4917              1180.3671
 Red. masses --      4.7874                 6.6229                 1.8327
 Frc consts  --      3.7872                 5.3370                 1.5045
 IR Inten    --     56.4907                24.9458                16.9089

                     73                     74                     75
                      A                      A                      A
 Frequencies --   1192.0240              1201.6212              1219.0847
 Red. masses --      3.4606                11.6672                 1.6954
 Frc consts  --      2.8972                 9.9255                 1.4845
 IR Inten    --      5.4794               515.8113               202.6898

                     76                     77                     78
                      A                      A                      A
 Frequencies --   1230.3929              1279.0801              1290.6357
 Red. masses --      7.9682                 1.1954                 1.1849
 Frc consts  --      7.1072                 1.1523                 1.1629
 IR Inten    --    270.0280                11.0792                 0.5513

                     79                     80                     81
                      A                      A                      A
 Frequencies --   1299.2148              1310.7806              1322.5996
 Red. masses --      2.6124                 1.5514                 4.0182
 Frc consts  --      2.5981                 1.5705                 4.1413
 IR Inten    --    207.0558               297.5582               250.1342

                     82                     83                     84
                      A                      A                      A
 Frequencies --   1328.0312              1329.0145              1334.7360
 Red. masses --      1.6428                 1.5555                 1.4963
 Frc consts  --      1.7071                 1.6188                 1.5706
 IR Inten    --     88.6287                22.3306               179.3380

                     85                     86                     87
                      A                      A                      A
 Frequencies --   1352.4358              1370.3597              1408.1582
 Red. masses --      2.6866                 2.2183                 4.4452
 Frc consts  --      2.8953                 2.4544                 5.1933
 IR Inten    --    785.5469               119.7988               368.6762

                     88                     89                     90
                      A                      A                      A
 Frequencies --   1418.2570              1421.5634              1430.4554
 Red. masses --      1.3131                 1.2958                 1.6503
 Frc consts  --      1.5562                 1.5428                 1.9896
 IR Inten    --     17.0270                 6.3464                 9.1520

                     91                     92                     93
                      A                      A                      A
 Frequencies --   1462.0584              1485.9579              1486.7128
 Red. masses --      4.4691                 1.7899                 2.0050
 Frc consts  --      5.6286                 2.3286                 2.6111
 IR Inten    --    382.2927                29.7109               109.9426

                     94                     95                     96
                      A                      A                      A
 Frequencies --   1507.8362              1510.0735              1521.4370
 Red. masses --      1.0653                 1.0379                 1.0817
 Frc consts  --      1.4270                 1.3945                 1.4752
 IR Inten    --      7.5613                 6.4187                43.8288

                     97                     98                     99
                      A                      A                      A
 Frequencies --   1522.0155              1525.4576              1539.0122
 Red. masses --      1.0405                 1.0661                 1.0852
 Frc consts  --      1.4202                 1.4616                 1.5144
 IR Inten    --      8.6291                 1.6395                 8.3894

                    100                    101                    102
                      A                      A                      A
 Frequencies --   1577.0470              1615.2588              1635.4576
 Red. masses --      2.9818                 3.7369                 2.9719
 Frc consts  --      4.3694                 5.7444                 4.6834
 IR Inten    --     78.9059                16.8114                31.4389

                    103                    104                    105
                      A                      A                      A
 Frequencies --   1675.5022              1689.0502              1717.5312
 Red. masses --      5.8261                 2.3584                 2.9437
 Frc consts  --      9.6365                 3.9641                 5.1163
 IR Inten    --    799.2397               400.8944               461.4431

                    106                    107                    108
                      A                      A                      A
 Frequencies --   1795.7238              3021.0251              3047.8463
 Red. masses --      2.7386                 1.0708                 1.0946
 Frc consts  --      5.2030                 5.7582                 5.9912
 IR Inten    --    397.4547                65.7254              1183.0825

                    109                    110                    111
                      A                      A                      A
 Frequencies --   3056.5228              3060.2075              3071.1030
 Red. masses --      1.0366                 1.0448                 1.0598
 Frc consts  --      5.7057                 5.7647                 5.8894
 IR Inten    --     47.5422                 5.6380                23.5259

                    112                    113                    114
                      A                      A                      A
 Frequencies --   3076.5448              3081.9007              3101.6628
 Red. masses --      1.0648                 1.0885                 1.1013
 Frc consts  --      5.9380                 6.0913                 6.2421
 IR Inten    --     11.6349                45.7723                11.5229

                    115                    116                    117
                      A                      A                      A
 Frequencies --   3106.2940              3129.5546              3129.9047
 Red. masses --      1.1024                 1.1012                 1.0965
 Frc consts  --      6.2671                 6.3543                 6.3290
 IR Inten    --      0.2379                48.4248                39.8446

                    118                    119                    120
                      A                      A                      A
 Frequencies --   3130.4324              3149.6621              3210.4716
 Red. masses --      1.1036                 1.1023                 1.0924
 Frc consts  --      6.3717                 6.4430                 6.6342
 IR Inten    --     60.1293                36.6846                 1.4491

                    121                    122                    123
                      A                      A                      A
 Frequencies --   3234.6812              3240.1722              3285.3067
 Red. masses --      1.0898                 1.0926                 1.0913
 Frc consts  --      6.7181                 6.7585                 6.9401
 IR Inten    --   1419.0244                 3.5683                22.1701

 - Thermochemistry -
 -------------------
 Temperature   298.150 Kelvin.  Pressure   1.00000 Atm.
 Atom     1 has atomic number  6 and mass  12.00000

 Molecular mass:   387.11434 amu.
 Principal axes and moments of inertia in atomic units:
                           1         2         3
     Eigenvalues --  5953.52329********************
           X            0.99999   0.00379  -0.00001
           Y           -0.00379   0.99999   0.00205
           Z            0.00002  -0.00205   1.00000
 This molecule is an asymmetric top.
 Rotational symmetry number  1.
 Warning -- assumption of classical behavior for rotation
           may cause significant error
 Rotational temperatures (Kelvin)      0.01455     0.00414     0.00331
 Rotational constants (GHZ):           0.30314     0.08633     0.06900
 Zero-point vibrational energy     844829.4 (Joules/Mol)
                                  201.91907 (Kcal/Mol)
 Warning -- explicit consideration of  40 degrees of freedom as
           vibrations may cause significant error
 Vibrational temperatures:     21.74    23.64    41.03    56.64    63.17
          (Kelvin)             71.37    78.17    83.46    91.75   102.43
                              112.67   134.43   136.46   165.85   181.32
                              209.28   239.99   244.77   271.52   299.58
                              319.74   337.17   341.95   350.06   390.19
                              430.43   465.94   494.11   498.09   560.34
                              577.26   606.76   671.83   691.83   734.86
                              753.31   781.36   825.37   843.64   873.68
                              894.38   948.37   951.64   956.54   983.29
                             1079.32  1089.14  1106.19  1116.29  1125.10
                             1147.01  1175.65  1188.93  1262.20  1280.06
                             1295.33  1326.13  1363.39  1377.71  1400.91
                             1462.55  1467.69  1505.47  1507.49  1552.11
                             1596.57  1598.13  1624.50  1658.20  1667.15
                             1682.64  1698.28  1715.05  1728.86  1753.99
                             1770.26  1840.31  1856.93  1869.28  1885.92
                             1902.92  1910.74  1912.15  1920.38  1945.85
                             1971.64  2026.02  2040.55  2045.31  2058.10
                             2103.57  2137.96  2139.05  2169.44  2172.66
                             2189.01  2189.84  2194.79  2214.29  2269.02
                             2323.99  2353.06  2410.67  2430.16  2471.14
                             2583.64  4346.58  4385.17  4397.65  4402.95
                             4418.63  4426.46  4434.16  4462.60  4469.26
                             4502.73  4503.23  4503.99  4531.66  4619.15
                             4653.98  4661.88  4726.82

 Zero-point correction=                           0.321779 (Hartree/Particle)
 Thermal correction to Energy=                    0.348544
 Thermal correction to Enthalpy=                  0.349488
 Thermal correction to Gibbs Free Energy=         0.259318
 Sum of electronic and zero-point Energies=          -1515.806675
 Sum of electronic and thermal Energies=             -1515.779909
 Sum of electronic and thermal Enthalpies=           -1515.778965
 Sum of electronic and thermal Free Energies=        -1515.869135

                     E (Thermal)             CV                S
                      KCal/Mol        Cal/Mol-Kelvin    Cal/Mol-Kelvin
 Total                  218.715             94.112            189.780
 Electronic               0.000              0.000              0.000
 Translational            0.889              2.981             43.753
 Rotational               0.889              2.981             36.430
 Vibrational            216.937             88.150            109.597
 Vibration     1          0.593              1.986              7.191
 Vibration     2          0.593              1.986              7.025
 Vibration     3          0.593              1.984              5.930
 Vibration     4          0.594              1.981              5.291
 Vibration     5          0.595              1.980              5.075
 Vibration     6          0.595              1.978              4.833
 Vibration     7          0.596              1.976              4.653
 Vibration     8          0.596              1.974              4.524
 Vibration     9          0.597              1.972              4.337
 Vibration    10          0.598              1.968              4.120
 Vibration    11          0.600              1.964              3.933
 Vibration    12          0.602              1.954              3.587
 Vibration    13          0.603              1.953              3.558
 Vibration    14          0.608              1.937              3.178
 Vibration    15          0.611              1.927              3.006
 Vibration    16          0.617              1.908              2.731
 Vibration    17          0.624              1.883              2.471
 Vibration    18          0.625              1.879              2.434
 Vibration    19          0.633              1.855              2.240
 Vibration    20          0.642              1.828              2.059
 Vibration    21          0.648              1.807              1.941
 Vibration    22          0.654              1.788              1.845
 Vibration    23          0.656              1.783              1.820
 Vibration    24          0.659              1.774              1.779
 Vibration    25          0.675              1.726              1.589
 Vibration    26          0.692              1.675              1.422
 Vibration    27          0.708              1.628              1.291
 Vibration    28          0.722              1.589              1.196
 Vibration    29          0.724              1.583              1.183
 Vibration    30          0.757              1.493              1.002
 Vibration    31          0.767              1.467              0.958
 Vibration    32          0.784              1.423              0.886
 Vibration    33          0.824              1.323              0.746
 Vibration    34          0.837              1.293              0.708
 Vibration    35          0.866              1.226              0.632
 Vibration    36          0.879              1.198              0.602
 Vibration    37          0.898              1.155              0.559
 Vibration    38          0.930              1.088              0.497
 Vibration    39          0.943              1.061              0.474
 Vibration    40          0.966              1.016              0.437

 Optimization completed.
    -- Stationary point found.
 Normal termination of Gaussian 09 at Fri Nov 15 00:06:49 2019.
