 Gaussian 09, Revision E.01,

 ----------------------------------------------------------------------
 # M062X/6-311+G* SCF=Tight INT(grid=ultrafine) OPT IOP(2/17=4) Empiric
 alDispersion=GD3 maxdisk=3221225472
 ----------------------------------------------------------------------

 -------------------------------------
 NM2_c2_carboxy.M062X_6-311pGd_opt_GD3
 -------------------------------------
 Symbolic Z-matrix:
 Charge = -1 Multiplicity = 1

 SCF Done:  E(RM062X) =  -1516.12801675     A.U. after   16 cycles
 Optimization completed.
    -- Stationary point found.
 Normal termination of Gaussian 09 at Thu Nov 14 22:08:01 2019.
 Gaussian 09:  ES64L-G09RevE.01 30-Nov-2015

 ----------------------------------------------------------------------
 # M062X/6-311+G* SCF=Tight INT(grid=ultrafine) EmpiricalDispersion=GD3
  Freq=Noraman maxdisk=3221225472 geom=check guess=read IOP(2/17=4)
 ----------------------------------------------------------------------

 -------------------------------------
 NM2_c2_carboxy.M062X_6-311pGd_opt_GD3
 -------------------------------------
 Structure from the checkpoint file:  "NM2_c2_carboxy.M062X_6-311pGd_opt_GD3.chk"
 Charge = -1 Multiplicity = 1

                         Standard orientation:
 ---------------------------------------------------------------------
 Center     Atomic      Atomic             Coordinates (Angstroms)
 Number     Number       Type             X           Y           Z
 ---------------------------------------------------------------------
      1          6           0        0.289666   -0.879975    0.001467
      2          7           0       -1.075588   -0.761432    0.009815
      3          6           0       -2.007513   -1.796290   -0.014448
      4          8           0       -1.709938   -2.985651   -0.048377
      5          7           0       -3.280660   -1.344863    0.007515
      6          6           0       -4.384523   -2.275642   -0.058613
      7          6           0       -5.698139   -1.531757    0.144887
      8          6           0       -6.896164   -2.471168    0.053331
      9          6           0        1.026569    0.326790    0.007935
     10          6           0        2.406950    0.325638    0.004952
     11          6           0        3.119694   -0.889191    0.004507
     12          6           0        2.387364   -2.071471   -0.011842
     13          6           0        1.000683   -2.089150   -0.012891
     14          1           0       -1.438879    0.214993    0.028530
     15          1           0       -3.491075   -0.334897   -0.019141
     16          1           0       -4.257895   -3.049520    0.706429
     17          1           0       -4.390052   -2.796338   -1.025687
     18          1           0       -5.778148   -0.731964   -0.596868
     19          1           0       -5.675974   -1.032594    1.118095
     20          1           0       -6.945068   -2.953549   -0.927188
     21          1           0       -7.836092   -1.936192    0.206742
     22          1           0       -6.836776   -3.262750    0.806136
     23          1           0        0.474452    1.261305    0.010587
     24          1           0        0.460434   -3.023040   -0.021933
     25          6           0        4.615246   -0.983906   -0.026862
     26          6           0        3.095437    1.667430    0.044927
     27          1           0        2.916705   -3.016372   -0.017324
     28          9           0        5.220620   -0.121450    0.805809
     29          9           0        5.135776   -0.763858   -1.250965
     30          9           0        5.041623   -2.212080    0.331863
     31          9           0        2.278126    2.665376   -0.312497
     32          9           0        4.152660    1.726548   -0.782882
     33          9           0        3.547075    1.970795    1.275224
     34          8           0       -1.817976    1.876758    0.044708
     35          8           0       -3.995856    1.381904   -0.073158
     36          6           0       -3.037065    2.183023   -0.019057
     37          6           0       -3.347605    3.686251   -0.030612
     38          6           0       -4.831775    4.018514   -0.092542
     39          1           0       -2.808941    4.117356   -0.880225
     40          1           0       -2.881004    4.116870    0.860704
     41          1           0       -5.286291    3.591782   -0.988142
     42          1           0       -4.998035    5.100112   -0.099594
     43          1           0       -5.359328    3.592212    0.762391
 ---------------------------------------------------------------------

 SCF Done:  E(RM062X) =  -1516.12801675     A.U. after    2 cycles

 The electronic state is 1-A.
 Alpha  occ. eigenvalues --  -25.19087 -25.18764 -25.18598 -25.18586 -25.18375
 Alpha  occ. eigenvalues --  -25.18272 -19.47380 -19.44811 -19.44557 -14.65819
 Alpha  occ. eigenvalues --  -14.63842 -10.71563 -10.71326 -10.55711 -10.51000
 Alpha  occ. eigenvalues --  -10.50713 -10.49233 -10.48223 -10.47118 -10.46551
 Alpha  occ. eigenvalues --  -10.46007 -10.45036 -10.44462 -10.43869 -10.41905
 Alpha  occ. eigenvalues --  -10.41843  -1.38290  -1.37839  -1.28917  -1.28488
 Alpha  occ. eigenvalues --   -1.28369  -1.28173  -1.06223  -1.03886  -0.94885
 Alpha  occ. eigenvalues --   -0.94026  -0.91526  -0.88771  -0.80038  -0.79755
 Alpha  occ. eigenvalues --   -0.78073  -0.75219  -0.72991  -0.71085  -0.68341
 Alpha  occ. eigenvalues --   -0.64610  -0.63626  -0.61630  -0.60625  -0.60588
 Alpha  occ. eigenvalues --   -0.60414  -0.59919  -0.59395  -0.58664  -0.56984
 Alpha  occ. eigenvalues --   -0.53372  -0.51947  -0.49328  -0.49040  -0.48911
 Alpha  occ. eigenvalues --   -0.48261  -0.48209  -0.46768  -0.45683  -0.45551
 Alpha  occ. eigenvalues --   -0.44910  -0.44727  -0.44015  -0.43736  -0.42708
 Alpha  occ. eigenvalues --   -0.42526  -0.42382  -0.42074  -0.41859  -0.41583
 Alpha  occ. eigenvalues --   -0.41178  -0.40293  -0.40012  -0.38907  -0.38021
 Alpha  occ. eigenvalues --   -0.37910  -0.37092  -0.35353  -0.35071  -0.34601
 Alpha  occ. eigenvalues --   -0.34047  -0.33202  -0.32697  -0.31227  -0.30909
 Alpha  occ. eigenvalues --   -0.30422  -0.29043  -0.28346  -0.23651  -0.23592
 Alpha  occ. eigenvalues --   -0.20858  -0.20351  -0.19798  -0.19612  -0.16788
 Alpha virt. eigenvalues --    0.08764   0.09134   0.09948   0.10121   0.10319
 Alpha virt. eigenvalues --    0.11441   0.11517   0.11784   0.11980   0.12407
 Alpha virt. eigenvalues --    0.12916   0.13153   0.13695   0.14047   0.14449

 Mulliken charges:
               1
     1  C   -0.735265
     2  N   -0.458933
     3  C    0.079875
     4  O   -0.385311
     5  N   -0.396559
     6  C   -0.501092
     7  C   -0.077234
     8  C   -1.125174
     9  C   -0.572859
    10  C   -0.075709
    11  C   -0.623764
    12  C   -0.293857
    13  C   -0.225137
    14  H    0.478238
    15  H    0.464147
    16  H    0.232964
    17  H    0.242757
    18  H    0.276710
    19  H    0.270539
    20  H    0.246408
    21  H    0.254654
    22  H    0.244346
    23  H    0.392199
    24  H    0.304945
    25  C    0.956769
    26  C    1.109067
    27  H    0.257582
    28  F   -0.077812
    29  F   -0.053526
    30  F   -0.135817
    31  F   -0.113916
    32  F   -0.075785
    33  F   -0.046672
    34  O   -0.480393
    35  O   -0.416020
    36  C    0.021869
    37  C   -0.176530
    38  C   -1.023583
    39  H    0.245932
    40  H    0.246322
    41  H    0.256905
    42  H    0.231406
    43  H    0.257312
 Sum of Mulliken charges =  -1.00000

 Dipole moment (field-independent basis, Debye):
    X=              1.7989    Y=             -1.1655    Z=              0.0475  Tot=              2.1440
 Quadrupole moment (field-independent basis, Debye-Ang):
   XX=           -221.9294   YY=           -181.0260   ZZ=           -157.1362
   XY=              2.6690   XZ=             -0.4201   YZ=             -0.4948

  Exact polarizability: 301.970   3.481 219.028   0.612   1.259 136.205
 Approx polarizability: 301.440   2.774 257.505   1.089   1.633 182.869

                      1                      2                      3
                      A                      A                      A
 Frequencies --     10.6670                19.2578                30.7626
 Red. masses --      5.6598                 4.7812                 2.5645
 Frc consts  --      0.0004                 0.0010                 0.0014
 IR Inten    --      0.0894                 0.4406                 0.0913

                      4                      5                      6
                      A                      A                      A
 Frequencies --     36.4411                42.1988                43.5656
 Red. masses --      3.0641                 3.7867                 6.1894
 Frc consts  --      0.0024                 0.0040                 0.0069
 IR Inten    --      0.4772                 0.1711                 1.6408

                      7                      8                      9
                      A                      A                      A
 Frequencies --     51.3733                59.1599                62.0982
 Red. masses --      5.2202                 3.8887                 3.4346
 Frc consts  --      0.0081                 0.0080                 0.0078
 IR Inten    --      1.3989                 2.1950                 0.7456

                     10                     11                     12
                      A                      A                      A
 Frequencies --     70.8894                79.7202                92.8688
 Red. masses --      6.5151                 5.3728                16.2189
 Frc consts  --      0.0193                 0.0201                 0.0824
 IR Inten    --      0.3123                 6.6646                 0.3518

                     13                     14                     15
                      A                      A                      A
 Frequencies --     95.3521               113.9646               136.5872
 Red. masses --      7.2275                 5.1948                 7.4373
 Frc consts  --      0.0387                 0.0398                 0.0817
 IR Inten    --      3.0847                 2.8703                 8.7261

                     16                     17                     18
                      A                      A                      A
 Frequencies --    144.3435               164.4035               171.5504
 Red. masses --      6.5207                12.7096                 4.0279
 Frc consts  --      0.0800                 0.2024                 0.0698
 IR Inten    --      4.4346                 0.2136                 8.1616

                     19                     20                     21
                      A                      A                      A
 Frequencies --    185.6072               202.5486               220.3395
 Red. masses --      4.3925                 7.8402                 1.1261
 Frc consts  --      0.0892                 0.1895                 0.0322
 IR Inten    --     16.0752                 1.2434                 0.4346

                     22                     23                     24
                      A                      A                      A
 Frequencies --    232.9792               237.1829               248.9920
 Red. masses --      3.4946                 1.4102                 6.2421
 Frc consts  --      0.1118                 0.0467                 0.2280
 IR Inten    --      0.3278                 0.0570                 1.8837

                     25                     26                     27
                      A                      A                      A
 Frequencies --    262.4000               298.7392               321.5008
 Red. masses --     10.2824                 3.9735                 7.9667
 Frc consts  --      0.4171                 0.2089                 0.4852
 IR Inten    --     13.0327                12.1127                 0.7389

                     28                     29                     30
                      A                      A                      A
 Frequencies --    341.9731               346.6455               354.1028
 Red. masses --     13.0360                 5.2019                 5.9324
 Frc consts  --      0.8982                 0.3683                 0.4383
 IR Inten    --      0.3242                10.7802                 1.4400

                     31                     32                     33
                      A                      A                      A
 Frequencies --    424.2766               428.4843               473.8819
 Red. masses --      6.1679                 6.9728                 7.2517
 Frc consts  --      0.6542                 0.7543                 0.9595
 IR Inten    --     10.5658                13.2442                 1.8322

                     34                     35                     36
                      A                      A                      A
 Frequencies --    482.4204               509.3138               525.0876
 Red. masses --      6.1561                 5.7116                 5.7216
 Frc consts  --      0.8441                 0.8729                 0.9295
 IR Inten    --      1.2935                40.2266                18.8522

                     37                     38                     39
                      A                      A                      A
 Frequencies --    541.0643               574.9297               585.4305
 Red. masses --     11.2292                14.5768                 1.9320
 Frc consts  --      1.9369                 2.8389                 0.3901
 IR Inten    --      1.9402                 2.1132                 0.4451

                     40                     41                     42
                      A                      A                      A
 Frequencies --    607.0429               622.9485               659.4493
 Red. masses --      6.3083                 8.8224                 5.0047
 Frc consts  --      1.3696                 2.0172                 1.2823
 IR Inten    --      8.5151                 2.4156                23.9108

                     43                     44                     45
                      A                      A                      A
 Frequencies --    660.7969               665.2475               677.2604
 Red. masses --      5.6417                 6.7381                 8.8693
 Frc consts  --      1.4514                 1.7569                 2.3969
 IR Inten    --      3.6184                10.2481                 6.8891

                     46                     47                     48
                      A                      A                      A
 Frequencies --    748.5896               752.2046               764.9076
 Red. masses --      1.1045                 5.1970                 7.9417
 Frc consts  --      0.3647                 1.7325                 2.7377
 IR Inten    --      3.5458                 3.4568                 5.7582

                     49                     50                     51
                      A                      A                      A
 Frequencies --    778.3174               781.7180               809.7953
 Red. masses --      5.1224                 3.4931                 4.6213
 Frc consts  --      1.8283                 1.2577                 1.7855
 IR Inten    --     10.2099                26.3404                16.7390

                     52                     53                     54
                      A                      A                      A
 Frequencies --    817.9922               825.5603               872.7189
 Red. masses --      1.7813                 1.4708                 1.4354
 Frc consts  --      0.7023                 0.5906                 0.6441
 IR Inten    --      1.8988                12.2558                51.0236

                     55                     56                     57
                      A                      A                      A
 Frequencies --    890.1927               902.0914               914.8620
 Red. masses --      4.0887                 1.1700                 2.2125
 Frc consts  --      1.9090                 0.5610                 1.0910
 IR Inten    --     51.1380                 2.0998                21.9272

                     58                     59                     60
                      A                      A                      A
 Frequencies --    946.7160               948.5214               991.2048
 Red. masses --      2.8359                 1.3762                 1.1684
 Frc consts  --      1.4975                 0.7295                 0.6763
 IR Inten    --     15.4154                 1.4240                77.3727

                     61                     62                     63
                      A                      A                      A
 Frequencies --   1005.5853              1020.5442              1045.6317
 Red. masses --      1.2659                 1.6907                 6.6138
 Frc consts  --      0.7542                 1.0375                 4.2605
 IR Inten    --     27.5466                 4.1027                33.4206

                     64                     65                     66
                      A                      A                      A
 Frequencies --   1051.3714              1080.9306              1109.5413
 Red. masses --      3.9353                 2.8868                 1.7961
 Frc consts  --      2.5629                 1.9873                 1.3028
 IR Inten    --     40.3966                29.2521                 0.9976

                     67                     68                     69
                      A                      A                      A
 Frequencies --   1110.6777              1130.7644              1148.9546
 Red. masses --      2.3547                 3.3706                 3.0477
 Frc consts  --      1.7114                 2.5392                 2.3704
 IR Inten    --      3.6298               215.8102                50.3548

                     70                     71                     72
                      A                      A                      A
 Frequencies --   1160.2228              1165.9830              1181.4571
 Red. masses --      2.9601                 5.8906                 1.6722
 Frc consts  --      2.3477                 4.7184                 1.3753
 IR Inten    --     10.2811                 9.3994                 4.4926

                     73                     74                     75
                      A                      A                      A
 Frequencies --   1193.6344              1200.5643              1207.7725
 Red. masses --      4.0717                 8.3217                 2.3000
 Frc consts  --      3.4179                 7.0670                 1.9767
 IR Inten    --     20.1737               484.0166               228.0313

                     76                     77                     78
                      A                      A                      A
 Frequencies --   1233.3246              1279.6162              1289.9600
 Red. masses --      8.6772                 1.1875                 1.1846
 Frc consts  --      7.7765                 1.1456                 1.1614
 IR Inten    --    300.4462                 5.7565                 0.6251

                     79                     80                     81
                      A                      A                      A
 Frequencies --   1298.7785              1320.2792              1327.0016
 Red. masses --      2.0950                 2.6429                 1.5964
 Frc consts  --      2.0821                 2.7143                 1.6563
 IR Inten    --    488.6471               267.2645                90.5347

                     82                     83                     84
                      A                      A                      A
 Frequencies --   1329.3332              1335.8871              1346.3011
 Red. masses --      1.7008                 1.1274                 5.0893
 Frc consts  --      1.7708                 1.1854                 5.4349
 IR Inten    --     60.9442                42.8910                84.7480

                     85                     86                     87
                      A                      A                      A
 Frequencies --   1351.6562              1372.7161              1399.1692
 Red. masses --      2.2648                 2.3789                 3.8690
 Frc consts  --      2.4379                 2.6411                 4.4626
 IR Inten    --    703.8129                47.5408               518.4965

                     88                     89                     90
                      A                      A                      A
 Frequencies --   1418.0232              1421.5022              1431.8694
 Red. masses --      1.3099                 1.2807                 1.6807
 Frc consts  --      1.5518                 1.5248                 2.0302
 IR Inten    --     19.2212                 4.2506                 6.2650

                     91                     92                     93
                      A                      A                      A
 Frequencies --   1463.4529              1474.9409              1485.5390
 Red. masses --      4.2169                 4.2580                 1.1896
 Frc consts  --      5.3211                 5.4576                 1.5467
 IR Inten    --    393.4644                67.9099                19.6214

                     94                     95                     96
                      A                      A                      A
 Frequencies --   1505.3414              1509.8800              1521.3070
 Red. masses --      1.0690                 1.0374                 1.0827
 Frc consts  --      1.4273                 1.3935                 1.4764
 IR Inten    --      8.7975                 6.4699                44.7787

                     97                     98                     99
                      A                      A                      A
 Frequencies --   1521.5187              1525.5720              1540.6148
 Red. masses --      1.0425                 1.0654                 1.0841
 Frc consts  --      1.4219                 1.4609                 1.5161
 IR Inten    --     10.2925                 1.8641                 8.6024

                    100                    101                    102
                      A                      A                      A
 Frequencies --   1580.8422              1612.2913              1637.3137
 Red. masses --      3.6873                 3.2152                 3.3829
 Frc consts  --      5.4293                 4.9244                 5.3431
 IR Inten    --     18.7539               159.1835                66.7971

                    103                    104                    105
                      A                      A                      A
 Frequencies --   1675.5226              1689.8662              1716.6106
 Red. masses --      4.9147                 2.5278                 2.9133
 Frc consts  --      8.1292                 4.2530                 5.0580
 IR Inten    --    864.6977               298.7725               470.2407

                    106                    107                    108
                      A                      A                      A
 Frequencies --   1795.1562              3010.1858              3027.5882
 Red. masses --      2.5652                 1.0990                 1.0677
 Frc consts  --      4.8706                 5.8675                 5.7661
 IR Inten    --    387.8645              1210.3077                80.3097

                    109                    110                    111
                      A                      A                      A
 Frequencies --   3056.3621              3060.3352              3069.4464
 Red. masses --      1.0368                 1.0423                 1.0947
 Frc consts  --      5.7063                 5.7517                 6.0765
 IR Inten    --     48.3341                46.6241                36.1362

                    112                    113                    114
                      A                      A                      A
 Frequencies --   3072.9774              3080.0992              3103.3710
 Red. masses --      1.0605                 1.0618                 1.1012
 Frc consts  --      5.9002                 5.9352                 6.2488
 IR Inten    --     20.3251                20.2538                10.2080

                    115                    116                    117
                      A                      A                      A
 Frequencies --   3106.3655              3129.9654              3130.2367
 Red. masses --      1.1025                 1.0966                 1.1008
 Frc consts  --      6.2679                 6.3296                 6.3550
 IR Inten    --      0.7954                56.0776                30.5531

                    118                    119                    120
                      A                      A                      A
 Frequencies --   3131.0504              3149.6700              3214.1652
 Red. masses --      1.1038                 1.1023                 1.0928
 Frc consts  --      6.3755                 6.4429                 6.6515
 IR Inten    --     59.1079                37.1932               126.5693

                    121                    122                    123
                      A                      A                      A
 Frequencies --   3222.6511              3235.3300              3282.0650
 Red. masses --      1.0906                 1.0902                 1.0933
 Frc consts  --      6.6733                 6.7237                 6.9388
 IR Inten    --   1295.8523                 1.9312                 7.3835

 - Thermochemistry -
 -------------------
 Temperature   298.150 Kelvin.  Pressure   1.00000 Atm.
 Atom     1 has atomic number  6 and mass  12.00000

 Molecular mass:   387.11434 amu.
 Principal axes and moments of inertia in atomic units:
                           1         2         3
     Eigenvalues --  5945.29174********************
           X            1.00000  -0.00161  -0.00009
           Y            0.00161   1.00000  -0.00135
           Z            0.00009   0.00135   1.00000
 This molecule is an asymmetric top.
 Rotational symmetry number  1.
 Warning -- assumption of classical behavior for rotation
           may cause significant error
 Rotational temperatures (Kelvin)      0.01457     0.00436     0.00345
 Rotational constants (GHZ):           0.30356     0.09082     0.07183
 Zero-point vibrational energy     844371.7 (Joules/Mol)
                                  201.80968 (Kcal/Mol)
 Warning -- explicit consideration of  40 degrees of freedom as
           vibrations may cause significant error
 Vibrational temperatures:     15.35    27.71    44.26    52.43    60.71
          (Kelvin)             62.68    73.91    85.12    89.35   101.99
                              114.70   133.62   137.19   163.97   196.52
                              207.68   236.54   246.82   267.05   291.42
                              317.02   335.20   341.25   358.24   377.53
                              429.82   462.57   492.02   498.75   509.47
                              610.44   616.49   681.81   694.09   732.79
                              755.48   778.47   827.19   842.30   873.40
                              896.28   948.80   950.74   957.14   974.43
                             1077.05  1082.25  1100.53  1119.82  1124.72
                             1165.11  1176.91  1187.80  1255.65  1280.79
                             1297.91  1316.28  1362.11  1364.71  1426.12
                             1446.81  1468.33  1504.43  1512.69  1555.22
                             1596.38  1598.02  1626.92  1653.09  1669.30
                             1677.59  1699.85  1717.37  1727.34  1737.71
                             1774.48  1841.08  1855.96  1868.65  1899.58
                             1909.26  1912.61  1922.04  1937.02  1944.73
                             1975.03  2013.09  2040.22  2045.22  2060.14
                             2105.58  2122.11  2137.36  2165.85  2172.38
                             2188.82  2189.12  2194.96  2216.60  2274.48
                             2319.72  2355.73  2410.70  2431.34  2469.82
                             2582.83  4330.98  4356.02  4397.42  4403.13
                             4416.24  4421.32  4431.57  4465.05  4469.36
                             4503.32  4503.71  4504.88  4531.67  4624.46
                             4636.67  4654.91  4722.15

 Zero-point correction=                           0.321604 (Hartree/Particle)
 Thermal correction to Energy=                    0.348417
 Thermal correction to Enthalpy=                  0.349361
 Thermal correction to Gibbs Free Energy=         0.258814
 Sum of electronic and zero-point Energies=          -1515.806413
 Sum of electronic and thermal Energies=             -1515.779600
 Sum of electronic and thermal Enthalpies=           -1515.778655
 Sum of electronic and thermal Free Energies=        -1515.869202

                     E (Thermal)             CV                S
                      KCal/Mol        Cal/Mol-Kelvin    Cal/Mol-Kelvin
 Total                  218.635             94.146            190.572
 Electronic               0.000              0.000              0.000
 Translational            0.889              2.981             43.753
 Rotational               0.889              2.981             36.338
 Vibrational            216.858             88.184            110.481
 Vibration     1          0.593              1.987              7.883
 Vibration     2          0.593              1.986              6.709
 Vibration     3          0.594              1.984              5.780
 Vibration     4          0.594              1.982              5.444
 Vibration     5          0.595              1.980              5.153
 Vibration     6          0.595              1.980              5.090
 Vibration     7          0.596              1.977              4.764
 Vibration     8          0.597              1.974              4.485
 Vibration     9          0.597              1.972              4.389
 Vibration    10          0.598              1.968              4.129
 Vibration    11          0.600              1.963              3.898
 Vibration    12          0.602              1.954              3.599
 Vibration    13          0.603              1.953              3.547
 Vibration    14          0.607              1.938              3.200
 Vibration    15          0.614              1.917              2.851
 Vibration    16          0.616              1.909              2.745
 Vibration    17          0.623              1.886              2.499
 Vibration    18          0.626              1.878              2.418
 Vibration    19          0.632              1.860              2.271
 Vibration    20          0.639              1.836              2.110
 Vibration    21          0.647              1.810              1.956
 Vibration    22          0.654              1.790              1.856
 Vibration    23          0.656              1.784              1.824
 Vibration    24          0.662              1.764              1.738
 Vibration    25          0.670              1.742              1.646
 Vibration    26          0.692              1.676              1.424
 Vibration    27          0.707              1.632              1.302
 Vibration    28          0.721              1.592              1.203
 Vibration    29          0.725              1.582              1.181
 Vibration    30          0.730              1.567              1.148
 Vibration    31          0.786              1.417              0.878
 Vibration    32          0.790              1.408              0.864
 Vibration    33          0.831              1.308              0.727
 Vibration    34          0.839              1.289              0.704
 Vibration    35          0.864              1.229              0.635
 Vibration    36          0.880              1.194              0.598
 Vibration    37          0.896              1.159              0.563
 Vibration    38          0.931              1.085              0.495
 Vibration    39          0.942              1.063              0.475
 Vibration    40          0.966              1.017              0.438

 Optimization completed.
    -- Stationary point found.
 Normal termination of Gaussian 09 at Fri Nov 15 00:06:05 2019.
