 Gaussian 09, Revision E.01,

 ----------------------------------------------------------------------
 # M062X/6-311+G* SCF=Tight INT(grid=ultrafine) OPT IOP(2/17=4) Empiric
 alDispersion=GD3 maxdisk=3221225472
 ----------------------------------------------------------------------

 -----------------------------------
 CP21_carboxy.M062X_6-311pGd_opt_GD3
 -----------------------------------
 Symbolic Z-matrix:
 Charge = -1 Multiplicity = 1

 SCF Done:  E(RM062X) =  -1727.62086139     A.U. after   17 cycles
 Optimization completed on the basis of negligible forces.
    -- Stationary point found.
 Normal termination of Gaussian 09 at Thu Nov 14 21:57:37 2019.
 Gaussian 09:  ES64L-G09RevE.01 30-Nov-2015

 ----------------------------------------------------------------------
 # M062X/6-311+G* SCF=Tight INT(grid=ultrafine) EmpiricalDispersion=GD3
  Freq=Noraman maxdisk=3221225472 geom=check guess=read IOP(2/17=4)
 ----------------------------------------------------------------------

 -----------------------------------
 CP21_carboxy.M062X_6-311pGd_opt_GD3
 -----------------------------------
 Structure from the checkpoint file:  "CP21_carboxy.M062X_6-311pGd_opt_GD3.chk"
 Charge = -1 Multiplicity = 1

                         Standard orientation:
 ---------------------------------------------------------------------
 Center     Atomic      Atomic             Coordinates (Angstroms)
 Number     Number       Type             X           Y           Z
 ---------------------------------------------------------------------
      1          6           0        0.013625   -0.416324   -0.343375
      2          7           0        1.370900   -0.463674   -0.203575
      3          6           0        2.177305   -1.601797   -0.118657
      4          8           0        1.748825   -2.748900   -0.158044
      5          7           0        3.484500   -1.295334    0.013631
      6          6           0        4.470398   -2.348353    0.114068
      7          6           0        5.854550   -1.741111    0.301498
      8          6           0        6.929904   -2.817193    0.408631
      9          6           0       -0.826982   -1.549532   -0.432561
     10          6           0       -2.190824   -1.384749   -0.574612
     11          6           0       -2.740233   -0.102012   -0.632094
     12          6           0       -1.925035    1.033825   -0.542524
     13          6           0       -0.566201    0.876918   -0.402106
     14          1           0        1.845168    0.463391   -0.158719
     15          1           0        3.810351   -0.315838    0.033066
     16          1           0        4.446638   -2.974100   -0.786882
     17          1           0        4.225097   -3.009469    0.953841
     18          1           0        5.850502   -1.111466    1.195904
     19          1           0        6.066828   -1.066658   -0.532973
     20          1           0        6.740337   -3.482650    1.255900
     21          1           0        7.920817   -2.378703    0.546037
     22          1           0        6.962065   -3.435118   -0.493411
     23          1           0       -0.389327   -2.534864   -0.394722
     24          6           0       -5.003661    0.104550    1.047195
     25          1           0       -2.367761    2.021824   -0.596128
     26          1           0        0.092751    1.737128   -0.339777
     27          9           0       -4.435301    1.113005    1.698001
     28          9           0       -6.323620    0.248661    1.106332
     29          9           0       -4.672285   -1.032369    1.649021
     30         16           0       -4.462429    0.084988   -0.739278
     31          8           0       -5.085471   -1.112066   -1.275632
     32          8           0       -4.814107    1.407927   -1.223405
     33          1           0       -2.840718   -2.249113   -0.653013
     34          8           0        2.421080    2.073807   -0.114890
     35          8           0        4.517607    1.320654    0.080224
     36          6           0        3.665321    2.231408   -0.006383
     37          6           0        4.155156    3.685934    0.017698
     38          6           0        5.662283    3.836409    0.168810
     39          1           0        3.622287    4.190738    0.829415
     40          1           0        3.800541    4.157878   -0.904012
     41          1           0        6.006389    3.370883    1.093874
     42          1           0        5.958525    4.889749    0.178698
     43          1           0        6.184323    3.336745   -0.648778
 ---------------------------------------------------------------------

 SCF Done:  E(RM062X) =  -1727.62086139     A.U. after    2 cycles

 The electronic state is 1-A.
 Alpha  occ. eigenvalues --  -90.03275 -25.22332 -25.22301 -25.22293 -19.55082
 Alpha  occ. eigenvalues --  -19.55081 -19.47871 -19.45243 -19.45007 -14.66531
 Alpha  occ. eigenvalues --  -14.64341 -10.74292 -10.56211 -10.51430 -10.51383
 Alpha  occ. eigenvalues --  -10.48908 -10.47922 -10.47821 -10.46899 -10.45494
 Alpha  occ. eigenvalues --  -10.45290 -10.44686 -10.44154 -10.42333 -10.42201
 Alpha  occ. eigenvalues --   -8.37639  -6.29843  -6.29803  -6.29707  -1.41877
 Alpha  occ. eigenvalues --   -1.32422  -1.32417  -1.17102  -1.06753  -1.06372
 Alpha  occ. eigenvalues --   -1.04329  -0.95396  -0.94478  -0.91899  -0.88214
 Alpha  occ. eigenvalues --   -0.80318  -0.78949  -0.77211  -0.76258  -0.75617
 Alpha  occ. eigenvalues --   -0.70525  -0.67978  -0.64466  -0.64025  -0.63508
 Alpha  occ. eigenvalues --   -0.62828  -0.61891  -0.59320  -0.57802  -0.56289
 Alpha  occ. eigenvalues --   -0.53092  -0.52534  -0.51786  -0.51729  -0.50460
 Alpha  occ. eigenvalues --   -0.48128  -0.47775  -0.47570  -0.47080  -0.46518
 Alpha  occ. eigenvalues --   -0.46033  -0.45740  -0.44361  -0.43473  -0.42828
 Alpha  occ. eigenvalues --   -0.42268  -0.42027  -0.41979  -0.41194  -0.40079
 Alpha  occ. eigenvalues --   -0.39488  -0.38217  -0.37733  -0.37338  -0.35766
 Alpha  occ. eigenvalues --   -0.35006  -0.34452  -0.33785  -0.33651  -0.33480
 Alpha  occ. eigenvalues --   -0.32589  -0.31601  -0.31443  -0.31107  -0.30826
 Alpha  occ. eigenvalues --   -0.29452  -0.29125  -0.28821  -0.24024  -0.23472
 Alpha  occ. eigenvalues --   -0.21308  -0.20777  -0.20232  -0.20069  -0.17337
 Alpha virt. eigenvalues --    0.07041   0.08956   0.09687   0.10046   0.10170
 Alpha virt. eigenvalues --    0.10892   0.11242   0.11436   0.11613   0.11823
 Alpha virt. eigenvalues --    0.12193   0.12813   0.13389   0.13407   0.13938

 Mulliken charges:
               1
     1  C   -0.291801
     2  N   -0.409837
     3  C    0.165624
     4  O   -0.382849
     5  N   -0.440972
     6  C   -0.491261
     7  C   -0.070751
     8  C   -1.165381
     9  C   -0.263279
    10  C   -0.454047
    11  C    0.129826
    12  C   -0.255870
    13  C   -0.567717
    14  H    0.473507
    15  H    0.472447
    16  H    0.242333
    17  H    0.239541
    18  H    0.275962
    19  H    0.275969
    20  H    0.244781
    21  H    0.255741
    22  H    0.245303
    23  H    0.306461
    24  C    0.007882
    25  H    0.282522
    26  H    0.347212
    27  F   -0.047579
    28  F   -0.087664
    29  F   -0.051241
    30  S    0.787241
    31  O   -0.117966
    32  O   -0.110561
    33  H    0.281458
    34  O   -0.473960
    35  O   -0.412805
    36  C    0.035637
    37  C   -0.193052
    38  C   -1.018028
    39  H    0.245037
    40  H    0.245475
    41  H    0.257269
    42  H    0.231907
    43  H    0.257486
 Sum of Mulliken charges =  -1.00000

 Dipole moment (field-independent basis, Debye):
    X=             -1.0384    Y=             -0.7489    Z=              2.0011  Tot=              2.3756
 Quadrupole moment (field-independent basis, Debye-Ang):
   XX=           -247.2748   YY=           -181.4139   ZZ=           -163.5874
   XY=             -6.6853   XZ=            -10.8037   YZ=             -0.1672

  Exact polarizability: 344.363 -13.150 223.663  12.429  -0.847 149.719
 Approx polarizability: 333.801 -10.103 280.286  14.088  -0.892 196.466

                      1                      2                      3
                      A                      A                      A
 Frequencies --      8.4895                17.2412                20.4810
 Red. masses --      3.0528                 4.5161                 3.7503
 Frc consts  --      0.0001                 0.0008                 0.0009
 IR Inten    --      0.1054                 0.3854                 0.4323

                      4                      5                      6
                      A                      A                      A
 Frequencies --     27.9698                38.1363                41.1316
 Red. masses --      2.0712                 5.5644                12.2936
 Frc consts  --      0.0010                 0.0048                 0.0123
 IR Inten    --      0.0425                 1.7263                 0.2665

                      7                      8                      9
                      A                      A                      A
 Frequencies --     43.1296                51.8657                53.8025
 Red. masses --      8.7398                 3.1786                 7.1096
 Frc consts  --      0.0096                 0.0050                 0.0121
 IR Inten    --      0.8688                 0.2319                 1.6995

                     10                     11                     12
                      A                      A                      A
 Frequencies --     63.2354                76.5417                79.9780
 Red. masses --      4.0171                 5.7317                 5.4215
 Frc consts  --      0.0095                 0.0198                 0.0204
 IR Inten    --      1.0236                 0.5285                 5.8925

                     13                     14                     15
                      A                      A                      A
 Frequencies --     81.4537               107.9241               138.1342
 Red. masses --      4.8088                 5.8276                 7.2853
 Frc consts  --      0.0188                 0.0400                 0.0819
 IR Inten    --      0.4767                 6.5097                11.9066

                     16                     17                     18
                      A                      A                      A
 Frequencies --    147.8660               180.7876               184.9052
 Red. masses --      4.3556                 5.3884                 4.2740
 Frc consts  --      0.0561                 0.1038                 0.0861
 IR Inten    --      6.4083                25.6377                 4.1269

                     19                     20                     21
                      A                      A                      A
 Frequencies --    191.2872               202.5387               212.8704
 Red. masses --      8.0434                14.1461                 1.1437
 Frc consts  --      0.1734                 0.3419                 0.0305
 IR Inten    --      2.5618                 1.7690                 0.6608

                     22                     23                     24
                      A                      A                      A
 Frequencies --    231.1566               238.8909               254.4663
 Red. masses --      5.3477                 1.1296                10.4813
 Frc consts  --      0.1684                 0.0380                 0.3999
 IR Inten    --      6.3920                 0.0309                 6.5226

                     25                     26                     27
                      A                      A                      A
 Frequencies --    298.4438               308.1483               314.5279
 Red. masses --      3.9475                13.3802                 8.4753
 Frc consts  --      0.2072                 0.7486                 0.4940
 IR Inten    --     12.4033                 1.0338                 0.1720

                     28                     29                     30
                      A                      A                      A
 Frequencies --    332.0340               349.4008               354.6380
 Red. masses --      6.5645                 5.7859                 7.0001
 Frc consts  --      0.4264                 0.4162                 0.5187
 IR Inten    --      3.8226                19.5087                 1.6784

                     31                     32                     33
                      A                      A                      A
 Frequencies --    378.8652               431.5554               451.8710
 Red. masses --      8.1247                 3.1503                 8.0601
 Frc consts  --      0.6871                 0.3457                 0.9697
 IR Inten    --     14.6103                 0.0318                 1.8711

                     34                     35                     36
                      A                      A                      A
 Frequencies --    486.7294               515.5068               523.6216
 Red. masses --      5.3381                 3.3358                 5.8269
 Frc consts  --      0.7451                 0.5223                 0.9413
 IR Inten    --     47.6723                 6.6092                24.6171

                     37                     38                     39
                      A                      A                      A
 Frequencies --    534.7792               565.0528               581.1466
 Red. masses --     10.6171                17.2888                 9.5150
 Frc consts  --      1.7890                 3.2523                 1.8933
 IR Inten    --     20.2924                 0.0146                61.4122

                     40                     41                     42
                      A                      A                      A
 Frequencies --    582.9451               613.7430               635.9800
 Red. masses --      1.9474                10.1277                 7.1223
 Frc consts  --      0.3899                 2.2477                 1.6973
 IR Inten    --      2.0272               222.3584                 2.0780

                     43                     44                     45
                      A                      A                      A
 Frequencies --    661.0087               716.7902               739.7954
 Red. masses --      4.5549                 6.9908                 3.7380
 Frc consts  --      1.1726                 2.1162                 1.2053
 IR Inten    --     38.1144               144.4247                 2.2466

                     46                     47                     48
                      A                      A                      A
 Frequencies --    747.4685               779.4860               780.4759
 Red. masses --      1.1031                 8.6939                 2.9210
 Frc consts  --      0.3631                 3.1123                 1.0483
 IR Inten    --      4.2493                13.2999                26.1961

                     49                     50                     51
                      A                      A                      A
 Frequencies --    786.2713               818.1122               826.3485
 Red. masses --      7.6410                 1.4925                 1.4289
 Frc consts  --      2.7832                 0.5886                 0.5749
 IR Inten    --     23.8344                 0.0794                14.4654

                     52                     53                     54
                      A                      A                      A
 Frequencies --    856.8223               870.7933               874.2722
 Red. masses --      1.2569                 5.1099                 1.6288
 Frc consts  --      0.5436                 2.2829                 0.7335
 IR Inten    --      9.2160                35.0247                28.7412

                     55                     56                     57
                      A                      A                      A
 Frequencies --    892.1638               903.7416               927.5292
 Red. masses --      4.0739                 1.1669                 1.7518
 Frc consts  --      1.9105                 0.5615                 0.8880
 IR Inten    --     31.1176                 2.7986                 5.2091

                     58                     59                     60
                      A                      A                      A
 Frequencies --    987.4667              1000.9833              1019.4202
 Red. masses --      1.1255                 1.2788                 3.0776
 Frc consts  --      0.6466                 0.7549                 1.8844
 IR Inten    --     56.6092                22.5011                57.2922

                     61                     62                     63
                      A                      A                      A
 Frequencies --   1020.3790              1022.5848              1047.8361
 Red. masses --      1.7187                 1.3667                 4.0146
 Frc consts  --      1.0543                 0.8420                 2.5971
 IR Inten    --      0.4722                34.9322                27.3961

                     64                     65                     66
                      A                      A                      A
 Frequencies --   1078.2311              1094.0836              1108.7417
 Red. masses --      2.7557                 3.9748                 1.7967
 Frc consts  --      1.8876                 2.8033                 1.3014
 IR Inten    --      5.9111               142.1618                 1.0849

                     67                     68                     69
                      A                      A                      A
 Frequencies --   1110.7745              1150.1033              1151.1002
 Red. masses --      2.3615                 2.8364                 2.5731
 Frc consts  --      1.7167                 2.2105                 2.0088
 IR Inten    --      3.5380               391.3297               328.1582

                     70                     71                     72
                      A                      A                      A
 Frequencies --   1164.0809              1181.6866              1191.5478
 Red. masses --      1.5136                 1.6231                 4.1867
 Frc consts  --      1.2085                 1.3353                 3.5023
 IR Inten    --      5.3311                 0.2853                 3.6853

                     73                     74                     75
                      A                      A                      A
 Frequencies --   1217.9734              1233.0121              1251.9305
 Red. masses --      1.8754                 3.3275                12.4656
 Frc consts  --      1.6391                 2.9806                11.5113
 IR Inten    --    144.4874               133.7258               380.7474

                     76                     77                     78
                      A                      A                      A
 Frequencies --   1253.8783              1280.2060              1289.6232
 Red. masses --     13.0864                 1.1832                 1.1847
 Frc consts  --     12.1222                 1.1425                 1.1608
 IR Inten    --    158.9165                 0.4545                 0.4967

                     79                     80                     81
                      A                      A                      A
 Frequencies --   1304.6748              1327.7997              1329.4796
 Red. masses --      1.9580                 1.8088                 1.7119
 Frc consts  --      1.9637                 1.8790                 1.7828
 IR Inten    --    387.7188                21.1629                46.3879

                     82                     83                     84
                      A                      A                      A
 Frequencies --   1337.4735              1339.5479              1354.1717
 Red. masses --      1.0941                 1.7120                 9.7765
 Frc consts  --      1.1531                 1.8100                10.5629
 IR Inten    --      6.2580                12.7664               240.8618

                     85                     86                     87
                      A                      A                      A
 Frequencies --   1366.2809              1395.3918              1417.8777
 Red. masses --      2.2354                 3.3784                 1.3090
 Frc consts  --      2.4586                 3.8758                 1.5505
 IR Inten    --    356.9862               235.1369                17.1133

                     88                     89                     90
                      A                      A                      A
 Frequencies --   1422.1346              1431.8725              1463.1296
 Red. masses --      1.2925                 1.6525                 4.0672
 Frc consts  --      1.5401                 1.9962                 5.1299
 IR Inten    --      5.6303                 5.4656               397.0484

                     91                     92                     93
                      A                      A                      A
 Frequencies --   1477.5739              1483.8577              1503.7091
 Red. masses --      3.4812                 1.1994                 1.0709
 Frc consts  --      4.4780                 1.5559                 1.4267
 IR Inten    --     29.5520                25.5316                12.4898

                     94                     95                     96
                      A                      A                      A
 Frequencies --   1509.0664              1520.1733              1522.0014
 Red. masses --      1.0372                 1.0867                 1.0384
 Frc consts  --      1.3916                 1.4796                 1.4173
 IR Inten    --      6.4602                49.8107                 8.0660

                     97                     98                     99
                      A                      A                      A
 Frequencies --   1525.0714              1540.4516              1555.1658
 Red. masses --      1.0661                 1.0851                 2.6657
 Frc consts  --      1.4609                 1.5171                 3.7986
 IR Inten    --      2.0558                12.3002               167.7012

                    100                    101                    102
                      A                      A                      A
 Frequencies --   1598.7364              1628.4521              1655.6437
 Red. masses --      4.0413                 2.6372                 5.8799
 Frc consts  --      6.0859                 4.1204                 9.4963
 IR Inten    --    146.2110                37.9777               924.9083

                    103                    104                    105
                      A                      A                      A
 Frequencies --   1690.9741              1714.8785              1800.0321
 Red. masses --      2.2619                 2.7814                 2.7065
 Frc consts  --      3.8106                 4.8192                 5.1668
 IR Inten    --    457.8167               550.2030               416.9754

                    106                    107                    108
                      A                      A                      A
 Frequencies --   3007.8460              3037.7458              3056.7228
 Red. masses --      1.0990                 1.0589                 1.0369
 Frc consts  --      5.8581                 5.7574                 5.7083
 IR Inten    --   1308.7113                83.7916                52.4662

                    109                    110                    111
                      A                      A                      A
 Frequencies --   3062.0544              3062.1469              3072.7345
 Red. masses --      1.0843                 1.0611                 1.0598
 Frc consts  --      5.9899                 5.8623                 5.8956
 IR Inten    --     36.0169                36.4175                23.4215

                    112                    113                    114
                      A                      A                      A
 Frequencies --   3081.1540              3103.0591              3106.5596
 Red. masses --      1.0614                 1.1012                 1.1027
 Frc consts  --      5.9371                 6.2473                 6.2703
 IR Inten    --     18.0315                11.0146                 0.8091

                    115                    116                    117
                      A                      A                      A
 Frequencies --   3130.8745              3131.5614              3131.7621
 Red. masses --      1.1022                 1.1025                 1.0969
 Frc consts  --      6.3655                 6.3702                 6.3387
 IR Inten    --     47.3420                53.7824                43.5175

                    118                    119                    120
                      A                      A                      A
 Frequencies --   3151.0734              3208.0106              3213.3778
 Red. masses --      1.1023                 1.0919                 1.0907
 Frc consts  --      6.4487                 6.6209                 6.6356
 IR Inten    --     36.2475               538.2314               973.0513

                    121                    122                    123
                      A                      A                      A
 Frequencies --   3225.7464              3231.5260              3282.5270
 Red. masses --      1.0911                 1.0943                 1.0928
 Frc consts  --      6.6893                 6.7329                 6.9377
 IR Inten    --      0.2821                 4.1543                 8.7249

 - Thermochemistry -
 -------------------
 Temperature   298.150 Kelvin.  Pressure   1.00000 Atm.
 Atom     1 has atomic number  6 and mass  12.00000

 Molecular mass:   383.08885 amu.
 Principal axes and moments of inertia in atomic units:
                           1         2         3
     Eigenvalues --  5137.78098********************
           X            0.99998   0.00007   0.00652
           Y           -0.00005   0.99999  -0.00317
           Z           -0.00652   0.00317   0.99997
 This molecule is an asymmetric top.
 Rotational symmetry number  1.
 Warning -- assumption of classical behavior for rotation
           may cause significant error
 Rotational temperatures (Kelvin)      0.01686     0.00355     0.00311
 Rotational constants (GHZ):           0.35127     0.07389     0.06485
 Zero-point vibrational energy     858333.2 (Joules/Mol)
                                  205.14655 (Kcal/Mol)
 Warning -- explicit consideration of  41 degrees of freedom as
           vibrations may cause significant error
 Vibrational temperatures:     12.21    24.81    29.47    40.24    54.87
          (Kelvin)             59.18    62.05    74.62    77.41    90.98
                              110.13   115.07   117.19   155.28   198.74
                              212.75   260.11   266.04   275.22   291.41
                              306.27   332.58   343.71   366.12   429.39
                              443.36   452.53   477.72   502.71   510.24
                              545.10   620.91   650.14   700.29   741.70
                              753.37   769.43   812.98   836.14   838.73
                              883.04   915.03   951.04  1031.30  1064.40
                             1075.44  1121.51  1122.93  1131.27  1177.08
                             1188.93  1232.77  1252.88  1257.88  1283.62
                             1300.28  1334.51  1420.74  1440.19  1466.72
                             1468.10  1471.27  1507.60  1551.33  1574.14
                             1595.23  1598.15  1654.74  1656.17  1674.85
                             1700.18  1714.37  1752.39  1774.03  1801.25
                             1804.05  1841.93  1855.48  1877.13  1910.41
                             1912.82  1924.32  1927.31  1948.35  1965.77
                             2007.65  2040.01  2046.13  2060.14  2105.11
                             2125.90  2134.94  2163.50  2171.21  2187.19
                             2189.82  2194.23  2216.36  2237.53  2300.22
                             2342.98  2382.10  2432.93  2467.32  2589.84
                             4327.61  4370.63  4397.94  4405.61  4405.74
                             4420.97  4433.09  4464.60  4469.64  4504.62
                             4505.61  4505.90  4533.69  4615.61  4623.33
                             4641.12  4649.44  4722.82

 Zero-point correction=                           0.326922 (Hartree/Particle)
 Thermal correction to Energy=                    0.353775
 Thermal correction to Enthalpy=                  0.354719
 Thermal correction to Gibbs Free Energy=         0.262438
 Sum of electronic and zero-point Energies=          -1727.293940
 Sum of electronic and thermal Energies=             -1727.267086
 Sum of electronic and thermal Enthalpies=           -1727.266142
 Sum of electronic and thermal Free Energies=        -1727.358423

                     E (Thermal)             CV                S
                      KCal/Mol        Cal/Mol-Kelvin    Cal/Mol-Kelvin
 Total                  221.997             93.395            194.222
 Electronic               0.000              0.000              0.000
 Translational            0.889              2.981             43.722
 Rotational               0.889              2.981             36.500
 Vibrational            220.220             87.433            114.000
 Vibration     1          0.593              1.987              8.336
 Vibration     2          0.593              1.986              6.929
 Vibration     3          0.593              1.986              6.587
 Vibration     4          0.593              1.984              5.968
 Vibration     5          0.594              1.982              5.354
 Vibration     6          0.594              1.981              5.204
 Vibration     7          0.595              1.980              5.110
 Vibration     8          0.596              1.977              4.745
 Vibration     9          0.596              1.976              4.672
 Vibration    10          0.597              1.972              4.354
 Vibration    11          0.599              1.965              3.978
 Vibration    12          0.600              1.963              3.891
 Vibration    13          0.600              1.962              3.856
 Vibration    14          0.606              1.943              3.306
 Vibration    15          0.614              1.915              2.830
 Vibration    16          0.617              1.905              2.700
 Vibration    17          0.630              1.866              2.320
 Vibration    18          0.631              1.860              2.278
 Vibration    19          0.634              1.852              2.215
 Vibration    20          0.639              1.836              2.110
 Vibration    21          0.644              1.821              2.019
 Vibration    22          0.653              1.793              1.870
 Vibration    23          0.657              1.781              1.811
 Vibration    24          0.665              1.755              1.699
 Vibration    25          0.692              1.677              1.426
 Vibration    26          0.698              1.658              1.372
 Vibration    27          0.702              1.646              1.338
 Vibration    28          0.714              1.612              1.250
 Vibration    29          0.727              1.576              1.169
 Vibration    30          0.730              1.566              1.146
 Vibration    31          0.749              1.515              1.044
 Vibration    32          0.793              1.402              0.854
 Vibration    33          0.811              1.357              0.790
 Vibration    34          0.843              1.279              0.692
 Vibration    35          0.871              1.216              0.620
 Vibration    36          0.879              1.198              0.602
 Vibration    37          0.890              1.173              0.577
 Vibration    38          0.921              1.107              0.514
 Vibration    39          0.938              1.072              0.483
 Vibration    40          0.940              1.068              0.480
 Vibration    41          0.973              1.003              0.427

 Optimization completed on the basis of negligible forces.
    -- Stationary point found.
 Normal termination of Gaussian 09 at Thu Nov 14 23:44:27 2019.
