 Gaussian 09, Revision E.01,

 ----------------------------------------------------------------------
 # M062X/6-311+G* SCF=Tight INT(grid=ultrafine) OPT IOP(2/17=4) Empiric
 alDispersion=GD3 SCRF=(SMD,Solvent=n-Pentadecane) maxdisk=3221225472
 ----------------------------------------------------------------------

 -----------------------------------------------
 CP21_carboxy.M062X_6-311pGd_opt_Pentadecane_GD3
 -----------------------------------------------
 Symbolic Z-matrix:
 Charge = -1 Multiplicity = 1

 SCF Done:  E(RM062X) =  -1727.66009978     A.U. after   16 cycles
 Optimization completed on the basis of negligible forces.
    -- Stationary point found.
 Normal termination of Gaussian 09 at Thu Nov 14 21:59:00 2019.
 Gaussian 09:  ES64L-G09RevE.01 30-Nov-2015

 ----------------------------------------------------------------------
 # M062X/6-311+G* SCF=Tight INT(grid=ultrafine) SCRF=(SMD,Solvent=n-Pen
 tadecane) EmpiricalDispersion=GD3 Freq=Noraman maxdisk=3221225472 geom
 =check guess=read IOP(2/17=4)
 ----------------------------------------------------------------------

 -----------------------------------------------
 CP21_carboxy.M062X_6-311pGd_opt_Pentadecane_GD3
 -----------------------------------------------
 Structure from the checkpoint file:  "CP21_carboxy.M062X_6-311pGd_opt_Pentadecane_GD3.chk"
 Charge = -1 Multiplicity = 1

                         Standard orientation:
 ---------------------------------------------------------------------
 Center     Atomic      Atomic             Coordinates (Angstroms)
 Number     Number       Type             X           Y           Z
 ---------------------------------------------------------------------
      1          6           0        0.017559   -0.408527   -0.339384
      2          7           0        1.377229   -0.456051   -0.193154
      3          6           0        2.181826   -1.593247   -0.107814
      4          8           0        1.747872   -2.739439   -0.152192
      5          7           0        3.490024   -1.297721    0.030627
      6          6           0        4.467318   -2.362107    0.139867
      7          6           0        5.867560   -1.776001    0.254842
      8          6           0        6.922789   -2.868588    0.381215
      9          6           0       -0.820085   -1.539849   -0.458776
     10          6           0       -2.184149   -1.376293   -0.604062
     11          6           0       -2.734922   -0.093905   -0.634301
     12          6           0       -1.923957    1.041456   -0.515518
     13          6           0       -0.565139    0.882958   -0.373047
     14          1           0        1.848193    0.471002   -0.139633
     15          1           0        3.818461   -0.320582    0.065164
     16          1           0        4.401004   -3.018796   -0.735121
     17          1           0        4.245116   -2.985359    1.014058
     18          1           0        5.907103   -1.107300    1.119740
     19          1           0        6.068517   -1.152395   -0.621193
     20          1           0        6.752037   -3.484371    1.269027
     21          1           0        7.926072   -2.444013    0.460979
     22          1           0        6.912312   -3.532611   -0.488006
     23          1           0       -0.385101   -2.526537   -0.441037
     24          6           0       -5.001487    0.082049    1.044633
     25          1           0       -2.364242    2.031690   -0.545091
     26          1           0        0.088076    1.745066   -0.289389
     27          9           0       -4.436120    1.082430    1.708430
     28          9           0       -6.320869    0.220908    1.101069
     29          9           0       -4.666092   -1.062914    1.626295
     30         16           0       -4.459306    0.092432   -0.740627
     31          8           0       -5.080403   -1.095588   -1.299984
     32          8           0       -4.812970    1.421865   -1.206525
     33          1           0       -2.827375   -2.243362   -0.704421
     34          8           0        2.407787    2.097890   -0.097770
     35          8           0        4.497318    1.341196    0.122695
     36          6           0        3.652781    2.256916    0.013994
     37          6           0        4.146197    3.708189    0.013151
     38          6           0        5.653992    3.863910    0.140471
     39          1           0        3.627465    4.223983    0.827422
     40          1           0        3.779708    4.171024   -0.908515
     41          1           0        6.016562    3.416437    1.067609
     42          1           0        5.944049    4.918791    0.132906
     43          1           0        6.169361    3.361870   -0.680354
 ---------------------------------------------------------------------

 SCF Done:  E(RM062X) =  -1727.66009978     A.U. after    2 cycles

 The electronic state is 1-A.
 Alpha  occ. eigenvalues --  -90.08025 -25.26869 -25.26852 -25.26849 -19.59874
 Alpha  occ. eigenvalues --  -19.59872 -19.52916 -19.50406 -19.50185 -14.71585
 Alpha  occ. eigenvalues --  -14.69378 -10.78935 -10.61265 -10.56528 -10.56268
 Alpha  occ. eigenvalues --  -10.53729 -10.52628 -10.52543 -10.51377 -10.50318
 Alpha  occ. eigenvalues --  -10.50104 -10.48412 -10.48316 -10.47055 -10.46681
 Alpha  occ. eigenvalues --   -8.42399  -6.34604  -6.34559  -6.34467  -1.46465
 Alpha  occ. eigenvalues --   -1.37008  -1.37003  -1.21875  -1.11795  -1.11136
 Alpha  occ. eigenvalues --   -1.09482  -1.00372  -0.99554  -0.96784  -0.93046
 Alpha  occ. eigenvalues --   -0.85016  -0.83301  -0.81988  -0.80918  -0.80329
 Alpha  occ. eigenvalues --   -0.75108  -0.72463  -0.69078  -0.68619  -0.68158
 Alpha  occ. eigenvalues --   -0.67594  -0.66612  -0.63699  -0.62560  -0.61129
 Alpha  occ. eigenvalues --   -0.57842  -0.57400  -0.56382  -0.56357  -0.55199
 Alpha  occ. eigenvalues --   -0.52749  -0.52366  -0.52229  -0.52018  -0.51316
 Alpha  occ. eigenvalues --   -0.50496  -0.50284  -0.49006  -0.48334  -0.47621
 Alpha  occ. eigenvalues --   -0.47062  -0.46818  -0.46733  -0.46011  -0.44721
 Alpha  occ. eigenvalues --   -0.44276  -0.42732  -0.42585  -0.41822  -0.40349
 Alpha  occ. eigenvalues --   -0.39961  -0.39049  -0.38577  -0.38420  -0.37714
 Alpha  occ. eigenvalues --   -0.37349  -0.36240  -0.36223  -0.35364  -0.35151
 Alpha  occ. eigenvalues --   -0.34167  -0.33877  -0.33627  -0.29070  -0.28265
 Alpha  occ. eigenvalues --   -0.26396  -0.25919  -0.25352  -0.25214  -0.22331
 Alpha virt. eigenvalues --    0.02299   0.05358   0.05394   0.05766   0.06376
 Alpha virt. eigenvalues --    0.06907   0.07151   0.07296   0.07864   0.07933
 Alpha virt. eigenvalues --    0.08246   0.08787   0.09143   0.09519   0.09946

 Mulliken charges:
               1
     1  C   -0.239855
     2  N   -0.420450
     3  C    0.193232
     4  O   -0.401155
     5  N   -0.459942
     6  C   -0.503711
     7  C   -0.075544
     8  C   -1.171422
     9  C   -0.316935
    10  C   -0.482303
    11  C    0.139491
    12  C   -0.237383
    13  C   -0.588426
    14  H    0.469711
    15  H    0.478149
    16  H    0.249267
    17  H    0.250061
    18  H    0.273253
    19  H    0.274467
    20  H    0.254270
    21  H    0.265981
    22  H    0.254019
    23  H    0.310609
    24  C    0.015027
    25  H    0.296965
    26  H    0.348008
    27  F   -0.045430
    28  F   -0.084669
    29  F   -0.049155
    30  S    0.792453
    31  O   -0.128143
    32  O   -0.117999
    33  H    0.296143
    34  O   -0.494587
    35  O   -0.433530
    36  C    0.045201
    37  C   -0.203979
    38  C   -1.025228
    39  H    0.253388
    40  H    0.254632
    41  H    0.259851
    42  H    0.245865
    43  H    0.259802
 Sum of Mulliken charges =  -1.00000

 Dipole moment (field-independent basis, Debye):
    X=             -0.9513    Y=             -0.8519    Z=              2.1018  Tot=              2.4593
 Quadrupole moment (field-independent basis, Debye-Ang):
   XX=           -241.8896   YY=           -179.1091   ZZ=           -163.3556
   XY=             -7.0828   XZ=            -11.5587   YZ=             -0.0702

  Exact polarizability: 373.078 -15.408 250.651  14.291  -0.651 165.769
 Approx polarizability: 330.915  -9.962 279.421  14.722  -0.027 196.341

                      1                      2                      3
                      A                      A                      A
 Frequencies --     15.7860                18.7030                21.9196
 Red. masses --      3.7176                 3.5556                 5.1385
 Frc consts  --      0.0005                 0.0007                 0.0015
 IR Inten    --      0.1450                 0.2010                 0.2786

                      4                      5                      6
                      A                      A                      A
 Frequencies --     37.5897                39.8826                51.5652
 Red. masses --     12.2205                 5.8149                 6.4050
 Frc consts  --      0.0102                 0.0054                 0.0100
 IR Inten    --      0.2252                 2.0911                 1.2931

                      7                      8                      9
                      A                      A                      A
 Frequencies --     54.1198                61.1582                65.1589
 Red. masses --      3.6832                 3.2568                 3.9627
 Frc consts  --      0.0064                 0.0072                 0.0099
 IR Inten    --      1.6242                 0.2569                 0.9741

                     10                     11                     12
                      A                      A                      A
 Frequencies --     67.7484                76.1969                84.1476
 Red. masses --      3.9034                 4.8157                 5.6797
 Frc consts  --      0.0106                 0.0165                 0.0237
 IR Inten    --      0.4597                 2.9780                 4.0516

                     13                     14                     15
                      A                      A                      A
 Frequencies --     89.6075               107.8851               137.5789
 Red. masses --      3.4336                 5.4309                 7.7769
 Frc consts  --      0.0162                 0.0372                 0.0867
 IR Inten    --      2.7125                 9.4123                18.8877

                     16                     17                     18
                      A                      A                      A
 Frequencies --    147.9206               174.1802               185.0183
 Red. masses --      3.9197                 5.3782                 4.7133
 Frc consts  --      0.0505                 0.0961                 0.0951
 IR Inten    --      4.1511                29.3347                 3.0092

                     19                     20                     21
                      A                      A                      A
 Frequencies --    192.3855               203.0565               225.9385
 Red. masses --      7.2989                13.8482                 1.1383
 Frc consts  --      0.1592                 0.3364                 0.0342
 IR Inten    --      4.3764                 2.1835                 0.7214

                     22                     23                     24
                      A                      A                      A
 Frequencies --    230.4606               238.6724               254.6507
 Red. masses --      5.1316                 1.1642                10.1897
 Frc consts  --      0.1606                 0.0391                 0.3893
 IR Inten    --      6.3844                 0.1240                 8.6822

                     25                     26                     27
                      A                      A                      A
 Frequencies --    299.3986               309.3184               313.8386
 Red. masses --      3.8390                13.4182                 8.4790
 Frc consts  --      0.2028                 0.7564                 0.4920
 IR Inten    --     13.2175                 0.8025                 0.1916

                     28                     29                     30
                      A                      A                      A
 Frequencies --    331.6207               349.7616               354.0968
 Red. masses --      6.4691                 5.4912                 7.4678
 Frc consts  --      0.4192                 0.3958                 0.5517
 IR Inten    --      3.9100                25.8602                 1.9856

                     31                     32                     33
                      A                      A                      A
 Frequencies --    379.2086               428.0290               450.5162
 Red. masses --      8.1252                 3.1244                 8.0337
 Frc consts  --      0.6884                 0.3373                 0.9607
 IR Inten    --     17.7483                 0.0950                 2.4335

                     34                     35                     36
                      A                      A                      A
 Frequencies --    484.9033               515.1023               524.5448
 Red. masses --      5.3534                 3.3538                 5.9414
 Frc consts  --      0.7416                 0.5243                 0.9632
 IR Inten    --     58.8701                 8.1073                28.7621

                     37                     38                     39
                      A                      A                      A
 Frequencies --    533.5053               565.2815               578.6446
 Red. masses --     10.2592                17.2880                 9.7161
 Frc consts  --      1.7205                 3.2548                 1.9167
 IR Inten    --     28.6390                 0.0499                77.8272

                     40                     41                     42
                      A                      A                      A
 Frequencies --    583.3727               608.9215               635.4600
 Red. masses --      1.9047                10.2209                 7.1288
 Frc consts  --      0.3819                 2.2329                 1.6961
 IR Inten    --      0.6734               263.7851                 1.8397

                     43                     44                     45
                      A                      A                      A
 Frequencies --    661.3464               714.7786               738.0145
 Red. masses --      4.5947                 6.9362                 3.6832
 Frc consts  --      1.1840                 2.0879                 1.1820
 IR Inten    --     45.3081               160.6490                 2.6911

                     46                     47                     48
                      A                      A                      A
 Frequencies --    756.5575               772.0623               780.6891
 Red. masses --      1.1329                 1.9138                11.1259
 Frc consts  --      0.3820                 0.6721                 3.9952
 IR Inten    --      9.9706                44.8411                 7.1629

                     49                     50                     51
                      A                      A                      A
 Frequencies --    786.7574               812.1882               823.7154
 Red. masses --      8.3891                 1.7550                 1.4861
 Frc consts  --      3.0595                 0.6821                 0.5941
 IR Inten    --     26.5552                 0.4627                14.0383

                     52                     53                     54
                      A                      A                      A
 Frequencies --    854.5557               871.0908               873.0054
 Red. masses --      1.2658                 5.1711                 1.6296
 Frc consts  --      0.5446                 2.3119                 0.7317
 IR Inten    --     13.3405                33.7422                32.9438

                     55                     56                     57
                      A                      A                      A
 Frequencies --    894.0984               905.2093               929.6431
 Red. masses --      4.0593                 1.1641                 1.7253
 Frc consts  --      1.9119                 0.5620                 0.8785
 IR Inten    --     34.1126                 4.0875                 6.0071

                     58                     59                     60
                      A                      A                      A
 Frequencies --    975.6464               997.9723              1016.9131
 Red. masses --      1.0943                 1.3059                 1.8809
 Frc consts  --      0.6137                 0.7663                 1.1460
 IR Inten    --     99.8800                12.3904                31.0787

                     61                     62                     63
                      A                      A                      A
 Frequencies --   1019.9263              1025.4840              1049.0873
 Red. masses --      2.0040                 1.6775                 4.1443
 Frc consts  --      1.2283                 1.0393                 2.6873
 IR Inten    --     56.9053                 4.2612                29.9891

                     64                     65                     66
                      A                      A                      A
 Frequencies --   1079.3663              1091.9013              1108.8256
 Red. masses --      2.6837                 4.1189                 1.7989
 Frc consts  --      1.8421                 2.8934                 1.3031
 IR Inten    --      5.9116               166.4452                 0.9664

                     67                     68                     69
                      A                      A                      A
 Frequencies --   1111.9048              1146.0628              1151.0261
 Red. masses --      2.3321                 3.7789                 2.2211
 Frc consts  --      1.6987                 2.9244                 1.7337
 IR Inten    --      4.9574               786.6621                81.4405

                     70                     71                     72
                      A                      A                      A
 Frequencies --   1165.1231              1182.3059              1185.4757
 Red. masses --      1.4750                 1.6117                 4.0198
 Frc consts  --      1.1798                 1.3274                 3.3285
 IR Inten    --      8.2307                 0.2309                 3.3948

                     73                     74                     75
                      A                      A                      A
 Frequencies --   1215.6436              1231.4539              1244.9433
 Red. masses --      2.1658                 2.6615                11.3124
 Frc consts  --      1.8858                 2.3780                10.3301
 IR Inten    --    206.0104                89.2549               478.7043

                     76                     77                     78
                      A                      A                      A
 Frequencies --   1246.8445              1282.2124              1291.9403
 Red. masses --     13.1238                 1.1887                 1.1796
 Frc consts  --     12.0209                 1.1515                 1.1600
 IR Inten    --    178.9149                 0.2855                 0.3124

                     79                     80                     81
                      A                      A                      A
 Frequencies --   1301.4390              1327.5185              1331.6029
 Red. masses --      2.0316                 1.9656                 1.6936
 Frc consts  --      2.0274                 2.0410                 1.7694
 IR Inten    --    521.8716                 3.0398                84.9699

                     82                     83                     84
                      A                      A                      A
 Frequencies --   1335.6162              1340.7688              1348.1168
 Red. masses --      1.0782                 1.7137                 7.2485
 Frc consts  --      1.1332                 1.8151                 7.7616
 IR Inten    --      0.2710                29.5728               269.2159

                     85                     86                     87
                      A                      A                      A
 Frequencies --   1361.4658              1389.9331              1421.8188
 Red. masses --      2.1835                 3.6022                 1.3174
 Frc consts  --      2.3846                 4.1002                 1.5691
 IR Inten    --    390.4831               299.4178                16.2028

                     88                     89                     90
                      A                      A                      A
 Frequencies --   1423.2440              1430.1482              1463.1180
 Red. masses --      1.3289                 1.5928                 2.6884
 Frc consts  --      1.5860                 1.9194                 3.3908
 IR Inten    --     12.4268                10.9789               377.7584

                     91                     92                     93
                      A                      A                      A
 Frequencies --   1474.7561              1476.2762              1501.5730
 Red. masses --      3.0446                 1.4787                 1.0646
 Frc consts  --      3.9015                 1.8987                 1.4142
 IR Inten    --     68.7920                55.7776                10.8471

                     94                     95                     96
                      A                      A                      A
 Frequencies --   1509.2500              1517.0991              1517.8906
 Red. masses --      1.0383                 1.0383                 1.0917
 Frc consts  --      1.3935                 1.4080                 1.4820
 IR Inten    --      9.0619                10.3041                60.7842

                     97                     98                     99
                      A                      A                      A
 Frequencies --   1520.7154              1536.7054              1552.8477
 Red. masses --      1.0712                 1.0874                 2.5865
 Frc consts  --      1.4596                 1.5129                 3.6747
 IR Inten    --      2.3620                17.1413               240.5289

                    100                    101                    102
                      A                      A                      A
 Frequencies --   1597.8529              1627.2594              1651.6671
 Red. masses --      3.6891                 2.7162                 5.9897
 Frc consts  --      5.5494                 4.2376                 9.6272
 IR Inten    --    173.5903                31.3637              1240.4555

                    103                    104                    105
                      A                      A                      A
 Frequencies --   1679.3656              1708.0497              1789.9990
 Red. masses --      2.4674                 2.7594                 2.5906
 Frc consts  --      4.1000                 4.7432                 4.8905
 IR Inten    --    480.0014               495.2335               475.5978

                    106                    107                    108
                      A                      A                      A
 Frequencies --   3025.2135              3046.2883              3060.6624
 Red. masses --      1.0978                 1.0583                 1.0374
 Frc consts  --      5.9197                 5.7864                 5.7259
 IR Inten    --   1491.4072                81.7381                48.8208

                    109                    110                    111
                      A                      A                      A
 Frequencies --   3067.7541              3072.1099              3074.7502
 Red. masses --      1.0439                 1.1051                 1.0580
 Frc consts  --      5.7884                 6.1452                 5.8932
 IR Inten    --     37.8736                24.0895                22.3416

                    112                    113                    114
                      A                      A                      A
 Frequencies --   3078.7570              3105.1580              3109.4973
 Red. masses --      1.0608                 1.1011                 1.1036
 Frc consts  --      5.9244                 6.2550                 6.2868
 IR Inten    --     31.1089                11.5381                 0.4427

                    115                    116                    117
                      A                      A                      A
 Frequencies --   3132.3797              3135.3425              3135.6012
 Red. masses --      1.1042                 1.0981                 1.1011
 Frc consts  --      6.3831                 6.3601                 6.3788
 IR Inten    --     71.5154                59.2515                31.5498

                    118                    119                    120
                      A                      A                      A
 Frequencies --   3153.9265              3216.2337              3225.0998
 Red. masses --      1.1024                 1.0912                 1.0908
 Frc consts  --      6.4610                 6.6505                 6.6847
 IR Inten    --     41.0532                23.8043              1524.4542

                    121                    122                    123
                      A                      A                      A
 Frequencies --   3227.7122              3232.4952              3286.7728
 Red. masses --      1.0918                 1.0952                 1.0926
 Frc consts  --      6.7014                 6.7427                 6.9546
 IR Inten    --      6.7402                19.6778                 9.5834

 - Thermochemistry -
 -------------------
 Temperature   298.150 Kelvin.  Pressure   1.00000 Atm.
 Atom     1 has atomic number  6 and mass  12.00000

 Molecular mass:   383.08885 amu.
 Principal axes and moments of inertia in atomic units:
                           1         2         3
     Eigenvalues --  5186.08129********************
           X            0.99998  -0.00022   0.00630
           Y            0.00024   1.00000  -0.00290
           Z           -0.00630   0.00290   0.99998
 This molecule is an asymmetric top.
 Rotational symmetry number  1.
 Warning -- assumption of classical behavior for rotation
           may cause significant error
 Rotational temperatures (Kelvin)      0.01670     0.00355     0.00311
 Rotational constants (GHZ):           0.34800     0.07402     0.06482
 Zero-point vibrational energy     858574.7 (Joules/Mol)
                                  205.20427 (Kcal/Mol)
 Warning -- explicit consideration of  41 degrees of freedom as
           vibrations may cause significant error
 Vibrational temperatures:     22.71    26.91    31.54    54.08    57.38
          (Kelvin)             74.19    77.87    87.99    93.75    97.47
                              109.63   121.07   128.93   155.22   197.95
                              212.82   250.61   266.20   276.80   292.15
                              325.07   331.58   343.40   366.39   430.77
                              445.04   451.54   477.13   503.23   509.47
                              545.60   615.84   648.19   697.67   741.12
                              754.70   767.59   813.31   832.54   839.34
                              876.10   914.28   951.53  1028.41  1061.84
                             1088.52  1110.82  1123.24  1131.97  1168.56
                             1185.14  1229.51  1253.30  1256.06  1286.41
                             1302.39  1337.55  1403.74  1435.86  1463.11
                             1467.44  1475.44  1509.40  1552.97  1571.00
                             1595.35  1599.78  1648.93  1656.07  1676.35
                             1701.07  1705.63  1749.04  1771.79  1791.19
                             1793.93  1844.82  1858.81  1872.48  1910.00
                             1915.88  1921.65  1929.06  1939.64  1958.84
                             1999.80  2045.68  2047.73  2057.66  2105.10
                             2121.84  2124.03  2160.43  2171.47  2182.76
                             2183.90  2187.97  2210.97  2234.20  2298.95
                             2341.26  2376.38  2416.23  2457.50  2575.41
                             4352.60  4382.92  4403.61  4413.81  4420.08
                             4423.87  4429.64  4467.62  4473.87  4506.79
                             4511.05  4511.43  4537.79  4627.44  4640.19
                             4643.95  4650.83  4728.93

 Zero-point correction=                           0.327014 (Hartree/Particle)
 Thermal correction to Energy=                    0.353706
 Thermal correction to Enthalpy=                  0.354650
 Thermal correction to Gibbs Free Energy=         0.264366
 Sum of electronic and zero-point Energies=          -1727.333086
 Sum of electronic and thermal Energies=             -1727.306394
 Sum of electronic and thermal Enthalpies=           -1727.305450
 Sum of electronic and thermal Free Energies=        -1727.395733

                     E (Thermal)             CV                S
                      KCal/Mol        Cal/Mol-Kelvin    Cal/Mol-Kelvin
 Total                  221.954             93.442            190.018
 Electronic               0.000              0.000              0.000
 Translational            0.889              2.981             43.722
 Rotational               0.889              2.981             36.508
 Vibrational            220.176             87.480            109.789
 Vibration     1          0.593              1.986              7.104
 Vibration     2          0.593              1.986              6.767
 Vibration     3          0.593              1.985              6.452
 Vibration     4          0.594              1.982              5.382
 Vibration     5          0.594              1.981              5.265
 Vibration     6          0.596              1.977              4.756
 Vibration     7          0.596              1.976              4.661
 Vibration     8          0.597              1.973              4.419
 Vibration     9          0.597              1.971              4.295
 Vibration    10          0.598              1.970              4.218
 Vibration    11          0.599              1.965              3.987
 Vibration    12          0.601              1.960              3.792
 Vibration    13          0.602              1.957              3.669
 Vibration    14          0.606              1.943              3.307
 Vibration    15          0.614              1.916              2.837
 Vibration    16          0.617              1.905              2.699
 Vibration    17          0.627              1.874              2.390
 Vibration    18          0.631              1.860              2.277
 Vibration    19          0.634              1.850              2.205
 Vibration    20          0.639              1.836              2.105
 Vibration    21          0.650              1.802              1.911
 Vibration    22          0.652              1.794              1.875
 Vibration    23          0.657              1.781              1.813
 Vibration    24          0.665              1.755              1.698
 Vibration    25          0.692              1.675              1.420
 Vibration    26          0.699              1.656              1.366
 Vibration    27          0.702              1.647              1.342
 Vibration    28          0.714              1.612              1.252
 Vibration    29          0.727              1.576              1.167
 Vibration    30          0.730              1.567              1.148
 Vibration    31          0.749              1.514              1.042
 Vibration    32          0.790              1.409              0.865
 Vibration    33          0.809              1.360              0.794
 Vibration    34          0.841              1.284              0.697
 Vibration    35          0.870              1.217              0.621
 Vibration    36          0.880              1.196              0.600
 Vibration    37          0.888              1.176              0.579
 Vibration    38          0.921              1.106              0.513
 Vibration    39          0.935              1.077              0.488
 Vibration    40          0.940              1.067              0.479
 Vibration    41          0.968              1.013              0.435

 Optimization completed on the basis of negligible forces.
    -- Stationary point found.
 Normal termination of Gaussian 09 at Thu Nov 14 23:53:53 2019.
