 Gaussian 09, Revision E.01,

 ----------------------------------------------------------------------
 # M062X/6-311+G* SCF=Tight INT(grid=ultrafine) OPT IOP(2/17=4) Empiric
 alDispersion=GD3 SCRF=(SMD,Solvent=h2o) maxdisk=3221225472
 ----------------------------------------------------------------------

 -----------------------------------------
 CP21_carboxy.M062X_6-311pGd_opt_water_GD3
 -----------------------------------------
 Symbolic Z-matrix:
 Charge = -1 Multiplicity = 1

 SCF Done:  E(RM062X) =  -1727.69546320     A.U. after   15 cycles
 SCF Done:  E(RM062X) =  -1727.69546309     A.U. after   11 cycles
 SCF Done:  E(RM062X) =  -1727.69546317     A.U. after   10 cycles
 Optimization completed.
    -- Stationary point found.
 Normal termination of Gaussian 09 at Thu Nov 14 22:10:21 2019.
 Gaussian 09:  ES64L-G09RevE.01 30-Nov-2015

 ----------------------------------------------------------------------
 # M062X/6-311+G* SCF=Tight INT(grid=ultrafine) SCRF=(SMD,Solvent=h2o)
 EmpiricalDispersion=GD3 Freq=Noraman maxdisk=3221225472 geom=check gue
 ss=read IOP(2/17=4)
 ----------------------------------------------------------------------

 -----------------------------------------
 CP21_carboxy.M062X_6-311pGd_opt_water_GD3
 -----------------------------------------
 Structure from the checkpoint file:  "CP21_carboxy.M062X_6-311pGd_opt_water_GD3.chk"
 Charge = -1 Multiplicity = 1

                         Standard orientation:
 ---------------------------------------------------------------------
 Center     Atomic      Atomic             Coordinates (Angstroms)
 Number     Number       Type             X           Y           Z
 ---------------------------------------------------------------------
      1          6           0       -0.012442   -0.478954   -0.374614
      2          7           0        1.361601   -0.502399   -0.268223
      3          6           0        2.187635   -1.613972   -0.163536
      4          8           0        1.774028   -2.776516   -0.230536
      5          7           0        3.484667   -1.305465    0.001076
      6          6           0        4.487881   -2.352958    0.129255
      7          6           0        5.865508   -1.740890    0.326357
      8          6           0        6.932546   -2.820849    0.455001
      9          6           0       -0.845568   -1.602862   -0.212855
     10          6           0       -2.217038   -1.468322   -0.327270
     11          6           0       -2.767187   -0.217251   -0.605464
     12          6           0       -1.962494    0.916488   -0.754512
     13          6           0       -0.597469    0.778266   -0.641967
     14          1           0        1.833518    0.410205   -0.357213
     15          1           0        3.773703   -0.332303    0.141416
     16          1           0        4.479904   -2.978996   -0.768058
     17          1           0        4.241247   -3.000758    0.976617
     18          1           0        5.856933   -1.112554    1.222542
     19          1           0        6.093905   -1.084403   -0.519138
     20          1           0        6.728796   -3.474298    1.307390
     21          1           0        7.921820   -2.382547    0.599365
     22          1           0        6.970518   -3.444251   -0.442187
     23          1           0       -0.423713   -2.570828    0.002844
     24          6           0       -4.992359    0.299610    1.073960
     25          1           0       -2.399617    1.885495   -0.965196
     26          1           0        0.043648    1.643543   -0.764298
     27          9           0       -4.400877    1.404604    1.498762
     28          9           0       -6.305821    0.455206    1.124160
     29          9           0       -4.638880   -0.713947    1.847966
     30         16           0       -4.495785   -0.048348   -0.690126
     31          8           0       -5.133340   -1.320263   -1.000746
     32          8           0       -4.868418    1.157365   -1.417016
     33          1           0       -2.854680   -2.336103   -0.202935
     34          8           0        2.601629    2.028188   -0.631059
     35          8           0        4.441420    1.391988    0.451235
     36          6           0        3.730645    2.263803   -0.110591
     37          6           0        4.229234    3.702422   -0.187714
     38          6           0        5.594133    3.949802    0.434665
     39          1           0        3.466300    4.327941    0.285716
     40          1           0        4.226927    3.982931   -1.245343
     41          1           0        5.597215    3.700495    1.497663
     42          1           0        5.875367    5.000491    0.336417
     43          1           0        6.366411    3.349708   -0.050868
 ---------------------------------------------------------------------

 SCF Done:  E(RM062X) =  -1727.69546317     A.U. after    1 cycles

 The electronic state is 1-A.
 Alpha  occ. eigenvalues --  -90.13538 -25.31470 -25.31455 -25.31451 -19.65531
 Alpha  occ. eigenvalues --  -19.65529 -19.59613 -19.57987 -19.57675 -14.77869
 Alpha  occ. eigenvalues --  -14.75792 -10.83982 -10.67875 -10.63923 -10.61743
 Alpha  occ. eigenvalues --  -10.59086 -10.57606 -10.57565 -10.56188 -10.55700
 Alpha  occ. eigenvalues --  -10.55426 -10.52717 -10.52487 -10.51563 -10.51367
 Alpha  occ. eigenvalues --   -8.47943  -6.40157  -6.40085  -6.40005  -1.51187
 Alpha  occ. eigenvalues --   -1.41738  -1.41727  -1.27395  -1.18179  -1.16762
 Alpha  occ. eigenvalues --   -1.16667  -1.06949  -1.06260  -1.02779  -0.98481
 Alpha  occ. eigenvalues --   -0.90402  -0.87911  -0.87158  -0.85916  -0.85764
 Alpha  occ. eigenvalues --   -0.80195  -0.77273  -0.73989  -0.73353  -0.73178
 Alpha  occ. eigenvalues --   -0.72794  -0.72131  -0.68507  -0.68080  -0.66613
 Alpha  occ. eigenvalues --   -0.63400  -0.63124  -0.61483  -0.60978  -0.60340
 Alpha  occ. eigenvalues --   -0.58922  -0.57921  -0.57281  -0.56979  -0.56738
 Alpha  occ. eigenvalues --   -0.55682  -0.54839  -0.54459  -0.54135  -0.53161
 Alpha  occ. eigenvalues --   -0.52947  -0.52860  -0.52062  -0.51738  -0.51004
 Alpha  occ. eigenvalues --   -0.50073  -0.48491  -0.47656  -0.46536  -0.46279
 Alpha  occ. eigenvalues --   -0.45186  -0.44392  -0.44325  -0.44108  -0.42860
 Alpha  occ. eigenvalues --   -0.41968  -0.41798  -0.41483  -0.40007  -0.39678
 Alpha  occ. eigenvalues --   -0.39497  -0.39258  -0.38806  -0.35947  -0.34041
 Alpha  occ. eigenvalues --   -0.33348  -0.32998  -0.32560  -0.32517  -0.28238
 Alpha virt. eigenvalues --   -0.02960   0.00212   0.01209   0.02081   0.02737
 Alpha virt. eigenvalues --    0.02972   0.03102   0.03500   0.03726   0.04283
 Alpha virt. eigenvalues --    0.04436   0.04743   0.05131   0.05737   0.05870

 Mulliken charges:
               1
     1  C   -0.225750
     2  N   -0.409928
     3  C    0.309963
     4  O   -0.522227
     5  N   -0.428517
     6  C   -0.571693
     7  C   -0.082354
     8  C   -1.172655
     9  C   -0.355966
    10  C   -0.442475
    11  C   -0.001600
    12  C   -0.282949
    13  C   -0.443179
    14  H    0.484482
    15  H    0.467912
    16  H    0.271808
    17  H    0.276055
    18  H    0.273243
    19  H    0.276052
    20  H    0.269124
    21  H    0.280242
    22  H    0.269387
    23  H    0.317820
    24  C    0.021745
    25  H    0.330462
    26  H    0.332345
    27  F   -0.034175
    28  F   -0.069467
    29  F   -0.035006
    30  S    0.869513
    31  O   -0.191844
    32  O   -0.197208
    33  H    0.330306
    34  O   -0.613983
    35  O   -0.576104
    36  C    0.215498
    37  C   -0.299774
    38  C   -1.027152
    39  H    0.285480
    40  H    0.286894
    41  H    0.269165
    42  H    0.276477
    43  H    0.270032
 Sum of Mulliken charges =  -1.00000

 Dipole moment (field-independent basis, Debye):
    X=             -1.5822    Y=              0.2164    Z=              3.2311  Tot=              3.6042
 Quadrupole moment (field-independent basis, Debye-Ang):
   XX=           -235.7725   YY=           -173.4332   ZZ=           -164.6410
   XY=             -9.3410   XZ=            -16.5351   YZ=             -1.7224

  Exact polarizability: 417.478 -16.093 314.471  21.381 -14.465 224.662
 Approx polarizability: 321.440  -6.203 273.992  16.164 -13.007 199.673

                      1                      2                      3
                      A                      A                      A
 Frequencies --     15.3192                20.7715                22.4406
 Red. masses --      5.1937                 6.0706                 3.9637
 Frc consts  --      0.0007                 0.0015                 0.0012
 IR Inten    --      1.2611                 1.8633                 1.9931

                      4                      5                      6
                      A                      A                      A
 Frequencies --     29.4672                40.8253                44.4857
 Red. masses --      3.8462                 6.4070                 8.1947
 Frc consts  --      0.0020                 0.0063                 0.0096
 IR Inten    --      0.2801                 6.8760                 0.3227

                      7                      8                      9
                      A                      A                      A
 Frequencies --     45.2002                50.2905                57.0372
 Red. masses --      5.4008                 4.6492                 3.0543
 Frc consts  --      0.0065                 0.0069                 0.0059
 IR Inten    --      1.6371                 3.0952                 3.3088

                     10                     11                     12
                      A                      A                      A
 Frequencies --     64.1976                68.1000                76.3145
 Red. masses --      3.0705                 4.7720                 4.6467
 Frc consts  --      0.0075                 0.0130                 0.0159
 IR Inten    --      6.8299                 1.0940                 0.7533

                     13                     14                     15
                      A                      A                      A
 Frequencies --     80.8714               104.3275               130.5530
 Red. masses --      5.2431                 4.0878                 7.8586
 Frc consts  --      0.0202                 0.0262                 0.0789
 IR Inten    --     11.7080                19.3007                29.5086

                     16                     17                     18
                      A                      A                      A
 Frequencies --    149.1043               160.6030               177.1420
 Red. masses --      4.7599                 4.9402                 4.1652
 Frc consts  --      0.0623                 0.0751                 0.0770
 IR Inten    --     12.1863                11.6920                 9.9027

                     19                     20                     21
                      A                      A                      A
 Frequencies --    190.0966               197.3963               226.9915
 Red. masses --      9.3196                12.9737                 5.1697
 Frc consts  --      0.1984                 0.2978                 0.1569
 IR Inten    --      8.3430                 4.1672                10.3844

                     22                     23                     24
                      A                      A                      A
 Frequencies --    246.8879               249.3574               252.4138
 Red. masses --      1.1393                 1.0983                 9.2996
 Frc consts  --      0.0409                 0.0402                 0.3491
 IR Inten    --      0.2471                 0.9155                20.1641

                     25                     26                     27
                      A                      A                      A
 Frequencies --    305.2134               309.0292               312.6596
 Red. masses --      3.9467                10.0520                 9.6086
 Frc consts  --      0.2166                 0.5656                 0.5534
 IR Inten    --     12.2536                 0.8453                 0.4545

                     28                     29                     30
                      A                      A                      A
 Frequencies --    328.8570               346.1835               358.5303
 Red. masses --      6.8185                 5.3476                 7.3012
 Frc consts  --      0.4345                 0.3776                 0.5530
 IR Inten    --      6.9078                30.4095                 2.6301

                     31                     32                     33
                      A                      A                      A
 Frequencies --    376.8307               421.0447               446.6080
 Red. masses --      8.1079                 3.0163                 8.0398
 Frc consts  --      0.6783                 0.3151                 0.9448
 IR Inten    --     25.9434                 0.1830                 7.4124

                     34                     35                     36
                      A                      A                      A
 Frequencies --    480.7917               510.8982               521.9224
 Red. masses --      5.5031                 3.2003                 5.8068
 Frc consts  --      0.7495                 0.4922                 0.9320
 IR Inten    --     76.8485                 7.0018                27.5388

                     37                     38                     39
                      A                      A                      A
 Frequencies --    529.3976               564.0999               570.2218
 Red. masses --      9.1662                17.2628                 9.1407
 Frc consts  --      1.5136                 3.2365                 1.7511
 IR Inten    --     49.4462                 0.0709               137.2404

                     40                     41                     42
                      A                      A                      A
 Frequencies --    579.3443               599.6607               634.6241
 Red. masses --      1.8842                10.1098                 7.0754
 Frc consts  --      0.3726                 2.1419                 1.6789
 IR Inten    --      0.6230               346.5825                 0.3929

                     43                     44                     45
                      A                      A                      A
 Frequencies --    652.1725               667.3154               712.1837
 Red. masses --      3.0080                 1.3739                 5.9459
 Frc consts  --      0.7538                 0.3605                 1.7769
 IR Inten    --     99.1453               101.9187               235.9251

                     46                     47                     48
                      A                      A                      A
 Frequencies --    729.4770               760.3849               776.9208
 Red. masses --      3.6688                 1.1203                 4.0935
 Frc consts  --      1.1503                 0.3816                 1.4558
 IR Inten    --      9.6304                13.9675                21.1830

                     49                     50                     51
                      A                      A                      A
 Frequencies --    786.8118               793.6701               819.2490
 Red. masses --     10.6791                 6.6416                 1.3836
 Frc consts  --      3.8952                 2.4649                 0.5471
 IR Inten    --     28.3584                27.0802                 4.1881

                     52                     53                     54
                      A                      A                      A
 Frequencies --    824.2707               847.2702               855.0700
 Red. masses --      1.3406                 1.2563                 1.7649
 Frc consts  --      0.5366                 0.5314                 0.7603
 IR Inten    --    123.6108                45.4650               163.7305

                     55                     56                     57
                      A                      A                      A
 Frequencies --    873.2908               889.0388               908.8257
 Red. masses --      4.5286                 3.7694                 1.1594
 Frc consts  --      2.0349                 1.7553                 0.5642
 IR Inten    --     33.2912                30.9973                 1.7885

                     58                     59                     60
                      A                      A                      A
 Frequencies --    932.2658               986.9464              1003.0673
 Red. masses --      1.6861                 1.3088                 1.3485
 Frc consts  --      0.8634                 0.7511                 0.7994
 IR Inten    --      5.5817                 2.5384                 0.1618

                     61                     62                     63
                      A                      A                      A
 Frequencies --   1016.4814              1025.4556              1048.7409
 Red. masses --      3.7588                 1.6554                 4.2986
 Frc consts  --      2.2882                 1.0256                 2.7855
 IR Inten    --     53.6354                13.3540                29.1867

                     64                     65                     66
                      A                      A                      A
 Frequencies --   1078.0136              1080.9815              1109.9689
 Red. masses --      4.2057                 2.9320                 1.8009
 Frc consts  --      2.8796                 2.0186                 1.3073
 IR Inten    --    167.4993                85.7466                 2.4250

                     67                     68                     69
                      A                      A                      A
 Frequencies --   1110.7297              1129.9566              1145.9944
 Red. masses --      2.3234                 3.6418                 2.0765
 Frc consts  --      1.6888                 2.7396                 1.6067
 IR Inten    --     20.6802              1090.6242                30.0901

                     70                     71                     72
                      A                      A                      A
 Frequencies --   1160.9222              1175.7303              1181.2423
 Red. masses --      1.4985                 3.5636                 1.6329
 Frc consts  --      1.1899                 2.9024                 1.3425
 IR Inten    --     23.3622                 4.8810                 0.3286

                     73                     74                     75
                      A                      A                      A
 Frequencies --   1204.6459              1222.8797              1238.4290
 Red. masses --      2.2248                 2.4109                12.6462
 Frc consts  --      1.9022                 2.1242                11.4275
 IR Inten    --    278.3761               126.0003               470.1430

                     76                     77                     78
                      A                      A                      A
 Frequencies --   1240.0183              1286.4282              1291.5509
 Red. masses --     13.1223                 1.1988                 2.1332
 Frc consts  --     11.8882                 1.1689                 2.0966
 IR Inten    --    288.8837                20.5852               791.2190

                     79                     80                     81
                      A                      A                      A
 Frequencies --   1294.7299              1303.8312              1325.0638
 Red. masses --      1.1704                13.3905                 2.0423
 Frc consts  --      1.1560                13.4119                 2.1127
 IR Inten    --      5.0537               553.6550                75.0565

                     82                     83                     84
                      A                      A                      A
 Frequencies --   1330.1782              1336.3542              1337.3000
 Red. masses --      1.7952                 1.0723                 1.5358
 Frc consts  --      1.8715                 1.1282                 1.6182
 IR Inten    --    147.8200                 2.5682                 9.2583

                     85                     86                     87
                      A                      A                      A
 Frequencies --   1354.9802              1373.3865              1416.6482
 Red. masses --      1.7648                 4.2968                 1.3160
 Frc consts  --      1.9090                 4.7751                 1.5560
 IR Inten    --    251.0032               379.5155                32.6588

                     88                     89                     90
                      A                      A                      A
 Frequencies --   1417.3091              1428.8155              1447.1177
 Red. masses --      1.2682                 1.6757                 1.5633
 Frc consts  --      1.5009                 2.0155                 1.9288
 IR Inten    --      4.5706                36.8041               222.9902

                     91                     92                     93
                      A                      A                      A
 Frequencies --   1462.2711              1462.5373              1484.7393
 Red. masses --      2.8916                 2.4398                 1.0589
 Frc consts  --      3.6429                 3.0748                 1.3754
 IR Inten    --     33.5554               303.3174                 5.0547

                     94                     95                     96
                      A                      A                      A
 Frequencies --   1500.0820              1502.4107              1505.7465
 Red. masses --      1.0378                 1.0387                 1.0953
 Frc consts  --      1.3759                 1.3813                 1.4632
 IR Inten    --     13.7726                13.4047                64.9688

                     97                     98                     99
                      A                      A                      A
 Frequencies --   1508.9760              1528.4407              1538.8723
 Red. masses --      1.0799                 1.1153                 6.1251
 Frc consts  --      1.4487                 1.5351                 8.5461
 IR Inten    --      2.3430                70.8261              1129.1646

                    100                    101                    102
                      A                      A                      A
 Frequencies --   1540.3179              1585.7673              1613.8065
 Red. masses --      2.5283                 3.2169                 1.8697
 Frc consts  --      3.5343                 4.7661                 2.8689
 IR Inten    --    184.4473               690.5260              1413.3228

                    103                    104                    105
                      A                      A                      A
 Frequencies --   1641.5647              1672.8593              1726.8415
 Red. masses --      6.3269                 4.1898                 1.9219
 Frc consts  --     10.0452                 6.9081                 3.3766
 IR Inten    --    254.8334               227.4005               638.1307

                    106                    107                    108
                      A                      A                      A
 Frequencies --   3063.9494              3066.5522              3071.4633
 Red. masses --      1.0587                 1.0392                 1.0586
 Frc consts  --      5.8559                 5.7575                 5.8839
 IR Inten    --      8.5112                27.5218               120.3188

                    109                    110                    111
                      A                      A                      A
 Frequencies --   3074.9880              3079.8055              3094.4343
 Red. masses --      1.0367                 1.0623                 1.1034
 Frc consts  --      5.7756                 5.9366                 6.2250
 IR Inten    --     45.6242                18.5456                 5.0511

                    112                    113                    114
                      A                      A                      A
 Frequencies --   3112.6216              3113.4544              3135.3295
 Red. masses --      1.1013                 1.1062                 1.1042
 Frc consts  --      6.2866                 6.3177                 6.3952
 IR Inten    --      6.5345                40.1803                99.8037

                    115                    116                    117
                      A                      A                      A
 Frequencies --   3143.2691              3143.7174              3148.6711
 Red. masses --      1.1026                 1.1024                 1.1037
 Frc consts  --      6.4184                 6.4189                 6.4467
 IR Inten    --     48.9498                47.0221                56.2097

                    118                    119                    120
                      A                      A                      A
 Frequencies --   3222.0894              3228.5334              3234.9947
 Red. masses --      1.0889                 1.0902                 1.0925
 Frc consts  --      6.6603                 6.6950                 6.7362
 IR Inten    --   1196.1180                72.5749                 7.3004

                    121                    122                    123
                      A                      A                      A
 Frequencies --   3240.5374              3295.3061              3350.9801
 Red. masses --      1.0966                 1.0931                 1.0860
 Frc consts  --      6.7845                 6.9938                 7.1850
 IR Inten    --      3.7788                 8.1856              1333.8788

 - Thermochemistry -
 -------------------
 Temperature   298.150 Kelvin.  Pressure   1.00000 Atm.
 Atom     1 has atomic number  6 and mass  12.00000

 Molecular mass:   383.08885 amu.
 Principal axes and moments of inertia in atomic units:
                           1         2         3
     Eigenvalues --  5290.35265********************
           X            0.99997   0.00126   0.00708
           Y           -0.00121   0.99998  -0.00681
           Z           -0.00709   0.00680   0.99995
 This molecule is an asymmetric top.
 Rotational symmetry number  1.
 Warning -- assumption of classical behavior for rotation
           may cause significant error
 Rotational temperatures (Kelvin)      0.01637     0.00352     0.00309
 Rotational constants (GHZ):           0.34114     0.07343     0.06440
 Zero-point vibrational energy     854876.3 (Joules/Mol)
                                  204.32034 (Kcal/Mol)
 Warning -- explicit consideration of  41 degrees of freedom as
           vibrations may cause significant error
 Vibrational temperatures:     22.04    29.89    32.29    42.40    58.74
          (Kelvin)             64.00    65.03    72.36    82.06    92.37
                               97.98   109.80   116.36   150.10   187.84
                              214.53   231.07   254.87   273.51   284.01
                              326.59   355.22   358.77   363.17   439.13
                              444.62   449.85   473.15   498.08   515.84
                              542.17   605.79   642.57   691.75   735.07
                              750.93   761.68   811.61   820.42   833.55
                              862.78   913.08   938.33   960.12  1024.67
                             1049.55  1094.02  1117.81  1132.05  1141.91
                             1178.72  1185.94  1219.03  1230.25  1256.47
                             1279.13  1307.60  1341.32  1419.99  1443.19
                             1462.49  1475.40  1508.90  1551.02  1555.29
                             1597.00  1598.09  1625.75  1648.83  1670.31
                             1691.61  1699.54  1733.21  1759.45  1781.82
                             1784.11  1850.88  1858.25  1862.83  1875.92
                             1906.47  1913.83  1922.71  1924.07  1949.51
                             1975.99  2038.24  2039.19  2055.74  2082.08
                             2103.88  2104.26  2136.21  2158.28  2161.63
                             2166.43  2171.08  2199.08  2214.09  2216.17
                             2281.56  2321.90  2361.84  2406.87  2484.54
                             4408.33  4412.08  4419.15  4424.22  4431.15
                             4452.20  4478.36  4479.56  4511.03  4522.46
                             4523.10  4530.23  4635.86  4645.13  4654.43
                             4662.40  4741.20  4821.31

 Zero-point correction=                           0.325605 (Hartree/Particle)
 Thermal correction to Energy=                    0.352609
 Thermal correction to Enthalpy=                  0.353553
 Thermal correction to Gibbs Free Energy=         0.261856
 Sum of electronic and zero-point Energies=          -1727.369858
 Sum of electronic and thermal Energies=             -1727.342854
 Sum of electronic and thermal Enthalpies=           -1727.341910
 Sum of electronic and thermal Free Energies=        -1727.433607

                     E (Thermal)             CV                S
                      KCal/Mol        Cal/Mol-Kelvin    Cal/Mol-Kelvin
 Total                  221.265             94.302            192.993
 Electronic               0.000              0.000              0.000
 Translational            0.889              2.981             43.722
 Rotational               0.889              2.981             36.542
 Vibrational            219.488             88.340            112.729
 Vibration     1          0.593              1.986              7.164
 Vibration     2          0.593              1.986              6.559
 Vibration     3          0.593              1.985              6.406
 Vibration     4          0.593              1.984              5.865
 Vibration     5          0.594              1.981              5.219
 Vibration     6          0.595              1.980              5.049
 Vibration     7          0.595              1.979              5.017
 Vibration     8          0.595              1.977              4.806
 Vibration     9          0.596              1.975              4.557
 Vibration    10          0.597              1.971              4.324
 Vibration    11          0.598              1.969              4.208
 Vibration    12          0.599              1.965              3.984
 Vibration    13          0.600              1.962              3.870
 Vibration    14          0.605              1.946              3.372
 Vibration    15          0.612              1.923              2.938
 Vibration    16          0.618              1.904              2.684
 Vibration    17          0.622              1.891              2.543
 Vibration    18          0.628              1.870              2.358
 Vibration    19          0.633              1.854              2.227
 Vibration    20          0.637              1.844              2.157
 Vibration    21          0.651              1.800              1.903
 Vibration    22          0.661              1.768              1.753
 Vibration    23          0.662              1.764              1.735
 Vibration    24          0.664              1.759              1.714
 Vibration    25          0.696              1.664              1.388
 Vibration    26          0.698              1.657              1.368
 Vibration    27          0.701              1.650              1.348
 Vibration    28          0.712              1.618              1.266
 Vibration    29          0.724              1.583              1.184
 Vibration    30          0.733              1.558              1.128
 Vibration    31          0.747              1.519              1.052
 Vibration    32          0.784              1.424              0.888
 Vibration    33          0.806              1.368              0.806
 Vibration    34          0.837              1.293              0.708
 Vibration    35          0.866              1.226              0.631
 Vibration    36          0.877              1.201              0.606
 Vibration    37          0.884              1.185              0.589
 Vibration    38          0.920              1.109              0.516
 Vibration    39          0.926              1.096              0.504
 Vibration    40          0.936              1.076              0.487
 Vibration    41          0.958              1.033              0.450

 Optimization completed.
    -- Stationary point found.
 Normal termination of Gaussian 09 at Fri Nov 15 00:02:18 2019.
