 Gaussian 16, Revision C.01,
 Gaussian 16:  ES64L-G16RevC.01  3-Jul-2019

 ----------------------------------------------------------------------
 # DSDPBEP86/AUG-cc-PVTZ SCF=Tight INT(grid=ultrafine) MaxDisk=1400000M
 B
 ----------------------------------------------------------------------

 ----------------------------------
 CP21_carboxy.DSDPBEP86_AUG-cc-PVTZ
 ----------------------------------
 Symbolic Z-matrix:
 Charge = -1 Multiplicity = 1

                         Standard orientation:
 ---------------------------------------------------------------------
 Center     Atomic      Atomic             Coordinates (Angstroms)
 Number     Number       Type             X           Y           Z
 ---------------------------------------------------------------------
      1          6           0        0.013625   -0.416324   -0.343375
      2          7           0        1.370900   -0.463674   -0.203575
      3          6           0        2.177305   -1.601797   -0.118657
      4          8           0        1.748825   -2.748900   -0.158044
      5          7           0        3.484500   -1.295334    0.013631
      6          6           0        4.470398   -2.348353    0.114068
      7          6           0        5.854550   -1.741111    0.301498
      8          6           0        6.929904   -2.817193    0.408631
      9          6           0       -0.826982   -1.549532   -0.432561
     10          6           0       -2.190824   -1.384749   -0.574612
     11          6           0       -2.740233   -0.102012   -0.632094
     12          6           0       -1.925035    1.033825   -0.542524
     13          6           0       -0.566201    0.876918   -0.402106
     14          1           0        1.845168    0.463391   -0.158719
     15          1           0        3.810351   -0.315838    0.033066
     16          1           0        4.446638   -2.974100   -0.786882
     17          1           0        4.225097   -3.009469    0.953841
     18          1           0        5.850502   -1.111466    1.195904
     19          1           0        6.066828   -1.066658   -0.532973
     20          1           0        6.740337   -3.482650    1.255900
     21          1           0        7.920817   -2.378703    0.546037
     22          1           0        6.962065   -3.435118   -0.493411
     23          1           0       -0.389327   -2.534864   -0.394722
     24          6           0       -5.003661    0.104550    1.047195
     25          1           0       -2.367761    2.021824   -0.596128
     26          1           0        0.092751    1.737128   -0.339777
     27          9           0       -4.435301    1.113005    1.698001
     28          9           0       -6.323620    0.248661    1.106332
     29          9           0       -4.672285   -1.032369    1.649021
     30         16           0       -4.462429    0.084988   -0.739278
     31          8           0       -5.085471   -1.112066   -1.275632
     32          8           0       -4.814107    1.407927   -1.223405
     33          1           0       -2.840718   -2.249113   -0.653013
     34          8           0        2.421080    2.073807   -0.114890
     35          8           0        4.517607    1.320654    0.080224
     36          6           0        3.665321    2.231408   -0.006383
     37          6           0        4.155156    3.685934    0.017698
     38          6           0        5.662283    3.836409    0.168810
     39          1           0        3.622287    4.190738    0.829415
     40          1           0        3.800541    4.157878   -0.904012
     41          1           0        6.006389    3.370883    1.093874
     42          1           0        5.958525    4.889749    0.178698
     43          1           0        6.184323    3.336745   -0.648778
 ---------------------------------------------------------------------

 SCF Done:  E(RDSDPBEP86) =  -1723.43371570     A.U. after   14 cycles
 E2(DSDPBEP86) =    -0.2452430425D+01 E(DSDPBEP86) =    -0.17258861461280D+04

 The electronic state is 1-A.
 Alpha  occ. eigenvalues --  -90.91086 -25.65451 -25.65445 -25.65424 -19.92571
 Alpha  occ. eigenvalues --  -19.92569 -19.85364 -19.82778 -19.82533 -14.99444
 Alpha  occ. eigenvalues --  -14.97099 -11.02748 -10.84344 -10.79530 -10.79520
 Alpha  occ. eigenvalues --  -10.76298 -10.75865 -10.75756 -10.74381 -10.72939
 Alpha  occ. eigenvalues --  -10.72718 -10.72333 -10.71675 -10.70207 -10.70052
 Alpha  occ. eigenvalues --   -8.68354  -6.47191  -6.47088  -6.47065  -1.52200
 Alpha  occ. eigenvalues --   -1.42777  -1.42727  -1.25160  -1.15724  -1.14406
 Alpha  occ. eigenvalues --   -1.13317  -1.03861  -1.03138  -0.99961  -0.96020
 Alpha  occ. eigenvalues --   -0.87011  -0.85602  -0.84335  -0.82787  -0.82450
 Alpha  occ. eigenvalues --   -0.76053  -0.73441  -0.69132  -0.68386  -0.68223
 Alpha  occ. eigenvalues --   -0.67945  -0.67585  -0.64242  -0.62402  -0.60847
 Alpha  occ. eigenvalues --   -0.56972  -0.56582  -0.56018  -0.55904  -0.54297
 Alpha  occ. eigenvalues --   -0.52264  -0.51958  -0.51397  -0.50682  -0.50111
 Alpha  occ. eigenvalues --   -0.50014  -0.49331  -0.47816  -0.47237  -0.46301
 Alpha  occ. eigenvalues --   -0.45613  -0.45476  -0.44847  -0.44742  -0.43545
 Alpha  occ. eigenvalues --   -0.43011  -0.41134  -0.40729  -0.40410  -0.37964
 Alpha  occ. eigenvalues --   -0.37589  -0.37541  -0.36775  -0.36449  -0.36290
 Alpha  occ. eigenvalues --   -0.35711  -0.34557  -0.34299  -0.33719  -0.33333
 Alpha  occ. eigenvalues --   -0.32185  -0.31768  -0.30647  -0.26876  -0.23847
 Alpha  occ. eigenvalues --   -0.23476  -0.23089  -0.22835  -0.22702  -0.18296
 Alpha virt. eigenvalues --    0.07868   0.08643   0.09617   0.09915   0.10005
 Alpha virt. eigenvalues --    0.10258   0.10832   0.10972   0.11126   0.11782
 Alpha virt. eigenvalues --    0.12167   0.12314   0.12504   0.12978   0.13036

 Mulliken charges:
               1
     1  C    1.076682
     2  N   -0.393571
     3  C   -0.208054
     4  O   -0.981760
     5  N   -0.236034
     6  C   -0.473777
     7  C   -0.344250
     8  C   -1.084129
     9  C   -0.932209
    10  C   -0.525589
    11  C    0.487027
    12  C   -0.568692
    13  C   -0.952730
    14  H    0.827655
    15  H    0.903559
    16  H    0.271586
    17  H    0.293099
    18  H    0.241453
    19  H    0.253625
    20  H    0.272761
    21  H    0.270924
    22  H    0.274021
    23  H    0.512490
    24  C    0.997226
    25  H    0.454756
    26  H    0.566273
    27  F   -0.400241
    28  F   -0.381962
    29  F   -0.402160
    30  S    1.931975
    31  O   -1.031284
    32  O   -1.031961
    33  H    0.430772
    34  O   -0.909547
    35  O   -0.778321
    36  C    0.643971
    37  C   -0.303982
    38  C   -0.933851
    39  H    0.194302
    40  H    0.194294
    41  H    0.250673
    42  H    0.273869
    43  H    0.251111
 Sum of Mulliken charges =  -1.00000

 Dipole moment (field-independent basis, Debye):
    X=             -1.2873    Y=             -0.5774    Z=              2.0137  Tot=              2.4588
 Quadrupole moment (field-independent basis, Debye-Ang):
   XX=           -248.2578   YY=           -181.1420   ZZ=           -162.2914
   XY=             -5.8557   XZ=            -11.1167   YZ=             -0.1327

 Normal termination of Gaussian 16 at Fri Sep 18 18:20:40 2020.
