 Gaussian 16, Revision C.01,
 Gaussian 16:  ES64L-G16RevC.01  3-Jul-2019

 ----------------------------------------------------------------------
 # DSDPBEP86/AUG-cc-PVTZ SCF=Tight INT(grid=ultrafine) MaxDisk=1400000M
 B
 ----------------------------------------------------------------------

 -------------------------
 NM3.DSDPBEP86_AUG-cc-PVTZ
 -------------------------
 Symbolic Z-matrix:
 Charge =  0 Multiplicity = 1

                         Standard orientation:
 ---------------------------------------------------------------------
 Center     Atomic      Atomic             Coordinates (Angstroms)
 Number     Number       Type             X           Y           Z
 ---------------------------------------------------------------------
      1          6           0       -0.178902    0.741797    0.053377
      2          7           0        1.199251    0.972003    0.117485
      3          6           0        2.215157    0.033246   -0.045589
      4          8           0        2.020455   -1.134157   -0.300434
      5          7           0        3.470753    0.573507    0.083018
      6          6           0        4.624476   -0.317363    0.054395
      7          6           0        5.915256    0.485989   -0.004148
      8          6           0        7.138895   -0.424193   -0.039948
      9          6           0       -0.747498   -0.538496    0.053504
     10          6           0       -2.128364   -0.652941    0.018636
     11          6           0       -2.974475    0.450908   -0.015596
     12          6           0       -2.388698    1.704909   -0.014611
     13          6           0       -1.012104    1.863188    0.017745
     14          1           0        1.475203    1.942357    0.107298
     15          1           0        3.570682    1.415447    0.631851
     16          1           0        4.527804   -0.952998   -0.827107
     17          1           0        4.622075   -0.981154    0.927124
     18          1           0        5.976771    1.147569    0.868234
     19          1           0        5.894432    1.129703   -0.888451
     20          1           0        7.186554   -1.057053    0.849408
     21          1           0        8.061985    0.155380   -0.085811
     22          1           0        7.113647   -1.080239   -0.913170
     23          1           0       -0.119363   -1.415111    0.070071
     24         17           0       -3.396723    3.123234   -0.056551
     25          1           0       -0.592090    2.863268    0.015816
     26          6           0       -2.770671   -2.013978    0.022161
     27          1           0       -4.051113    0.338262   -0.043013
     28          9           0       -3.570932   -2.172187    1.089818
     29          9           0       -3.543147   -2.192826   -1.061693
     30          9           0       -1.878631   -3.006556    0.044042
 ---------------------------------------------------------------------

 SCF Done:  E(RDSDPBEP86) =  -1367.77116433     A.U. after   13 cycles
 E2(DSDPBEP86) =    -0.1695076435D+01 E(DSDPBEP86) =    -0.13694662407674D+04

 The electronic state is 1-A.
 Alpha  occ. eigenvalues -- -103.58212 -25.70945 -25.70572 -25.70567 -19.98204
 Alpha  occ. eigenvalues --  -15.13779 -15.11595 -11.08427 -10.97561 -10.90739
 Alpha  occ. eigenvalues --  -10.90317 -10.86376 -10.85938 -10.85203 -10.84734
 Alpha  occ. eigenvalues --  -10.84117 -10.83054 -10.81693 -10.15708  -7.73387
 Alpha  occ. eigenvalues --   -7.72914  -7.72902  -1.57368  -1.48086  -1.47609
 Alpha  occ. eigenvalues --   -1.29166  -1.16709  -1.13062  -1.09304  -1.03514
 Alpha  occ. eigenvalues --   -0.97769  -0.95909  -0.92074  -0.87663  -0.85702
 Alpha  occ. eigenvalues --   -0.79347  -0.79260  -0.75215  -0.74233  -0.73453
 Alpha  occ. eigenvalues --   -0.72132  -0.71671  -0.68493  -0.64334  -0.63806
 Alpha  occ. eigenvalues --   -0.61929  -0.61765  -0.61034  -0.59794  -0.58307
 Alpha  occ. eigenvalues --   -0.57422  -0.57366  -0.56821  -0.55772  -0.55520
 Alpha  occ. eigenvalues --   -0.54775  -0.53018  -0.52624  -0.51291  -0.49923
 Alpha  occ. eigenvalues --   -0.49674  -0.47585  -0.47015  -0.45604  -0.44711
 Alpha  occ. eigenvalues --   -0.44036  -0.41709  -0.41023  -0.39624  -0.36495
 Alpha  occ. eigenvalues --   -0.33200  -0.30023
 Alpha virt. eigenvalues --    0.00198   0.01534   0.02344   0.02570   0.02813
 Alpha virt. eigenvalues --    0.03197   0.03480   0.04336   0.04631   0.04724
 Alpha virt. eigenvalues --    0.04855   0.05146   0.05932   0.06680   0.06735

 Mulliken charges:
               1
     1  C    0.704897
     2  N   -0.383273
     3  C    0.172619
     4  O   -0.773860
     5  N   -0.133230
     6  C   -0.136689
     7  C   -0.412604
     8  C   -0.978655
     9  C   -0.860921
    10  C    0.893250
    11  C   -0.762638
    12  C    0.478685
    13  C   -0.717191
    14  H    0.023373
    15  H    0.055149
    16  H    0.310188
    17  H    0.288238
    18  H    0.233098
    19  H    0.251216
    20  H    0.275235
    21  H    0.277285
    22  H    0.278147
    23  H    0.417891
    24  Cl  -0.421382
    25  H    0.461465
    26  C    1.174703
    27  H    0.484034
    28  F   -0.408842
    29  F   -0.410998
    30  F   -0.379187
 Sum of Mulliken charges =  -0.00000

 Dipole moment (field-independent basis, Debye):
    X=              5.0422    Y=              4.3123    Z=              1.0802  Tot=              6.7221
 Quadrupole moment (field-independent basis, Debye-Ang):
   XX=           -100.2197   YY=           -115.2546   ZZ=           -113.9043
   XY=              5.5357   XZ=              3.3694   YZ=              0.5957

 Normal termination of Gaussian 16 at Mon Sep 21 21:32:39 2020.
