 Gaussian 16, Revision C.01,

 ----------------------------------------------------------------------
 # M062X/6-311+G* SCF=Tight INT(grid=ultrafine) OPT IOP(2/17=4) Empiric
 alDispersion=GD3 SCRF=(SMD,Solvent=n-Pentadecane) MaxDisk=10000MB
 ----------------------------------------------------------------------

 --------------------------------------
 NM3.M062X_6-311pGd_opt_Pentadecane_GD3
 --------------------------------------
 Symbolic Z-matrix:
 Charge =  0 Multiplicity = 1

 SCF Done:  E(RM062X) =  -1370.81511072     A.U. after   15 cycles
 SCF Done:  E(RM062X) =  -1370.81511082     A.U. after    9 cycles
 SCF Done:  E(RM062X) =  -1370.81511087     A.U. after    9 cycles
 SCF Done:  E(RM062X) =  -1370.81511089     A.U. after    8 cycles
 SCF Done:  E(RM062X) =  -1370.81511089     A.U. after    8 cycles
 SCF Done:  E(RM062X) =  -1370.81511089     A.U. after    7 cycles
 Optimization completed.
    -- Stationary point found.
 Normal termination of Gaussian 16 at Tue Sep 15 11:04:20 2020.
 Gaussian 16:  ES64L-G16RevC.01  3-Jul-2019

 ----------------------------------------------------------------------
 # M062X/6-311+G* SCF=Tight INT(grid=ultrafine) EmpiricalDispersion=GD3
  SCRF=(SMD,Solvent=n-Pentadecane) Freq=Noraman MaxDisk=10000MB geom=ch
 eck guess=read IOP(2/17=4)
 ----------------------------------------------------------------------

 --------------------------------------
 NM3.M062X_6-311pGd_opt_Pentadecane_GD3
 --------------------------------------
 Structure from the checkpoint file:  "NM3.M062X_6-311pGd_opt_Pentadecane_GD3.chk"
 Charge =  0 Multiplicity = 1

                         Standard orientation:
 ---------------------------------------------------------------------
 Center     Atomic      Atomic             Coordinates (Angstroms)
 Number     Number       Type             X           Y           Z
 ---------------------------------------------------------------------
      1          6           0       -0.192605    0.736217    0.021592
      2          7           0        1.183478    0.963371    0.058906
      3          6           0        2.199782    0.015518   -0.001220
      4          8           0        1.999802   -1.175589   -0.135321
      5          7           0        3.449596    0.557932    0.078095
      6          6           0        4.620710   -0.306795    0.131315
      7          6           0        5.888163    0.502621   -0.100992
      8          6           0        7.130483   -0.379344   -0.052063
      9          6           0       -0.774766   -0.534027    0.007030
     10          6           0       -2.161445   -0.637363   -0.015204
     11          6           0       -2.999038    0.467942   -0.023326
     12          6           0       -2.395291    1.718374   -0.011814
     13          6           0       -1.021868    1.867607    0.010126
     14          1           0        1.462161    1.934527    0.044081
     15          1           0        3.555247    1.493979    0.442764
     16          1           0        4.507906   -1.068742   -0.641493
     17          1           0        4.670690   -0.829134    1.093907
     18          1           0        5.965851    1.288598    0.659257
     19          1           0        5.817342    1.004077   -1.070939
     20          1           0        7.229488   -0.871159    0.919003
     21          1           0        8.036677    0.204911   -0.221938
     22          1           0        7.089608   -1.159099   -0.816772
     23          1           0       -0.156084   -1.418873    0.006019
     24         17           0       -3.397825    3.145176   -0.025889
     25          1           0       -0.589626    2.862371    0.017175
     26          6           0       -2.751303   -2.020314    0.002491
     27          1           0       -4.075958    0.368562   -0.042681
     28          9           0       -2.557785   -2.626081    1.186917
     29          9           0       -4.072310   -2.016963   -0.220234
     30          9           0       -2.196253   -2.813073   -0.925829
 ---------------------------------------------------------------------

 SCF Done:  E(RM062X) =  -1370.81511089     A.U. after    2 cycles

 The electronic state is 1-A.
 Alpha  occ. eigenvalues -- -102.68709 -25.28077 -25.27662 -25.27544 -19.59827
 Alpha  occ. eigenvalues --  -14.79906 -14.77654 -10.80446 -10.68631 -10.62492
 Alpha  occ. eigenvalues --  -10.62099 -10.58477 -10.57373 -10.57218 -10.56865
 Alpha  occ. eigenvalues --  -10.56179 -10.54243 -10.52828  -9.82978  -7.55489
 Alpha  occ. eigenvalues --   -7.54815  -7.54805  -1.47221  -1.37921  -1.37450
 Alpha  occ. eigenvalues --   -1.19230  -1.07610  -1.04183  -1.01106  -0.95908
 Alpha  occ. eigenvalues --   -0.90109  -0.88305  -0.85061  -0.81769  -0.78964
 Alpha  occ. eigenvalues --   -0.74238  -0.73371  -0.69926  -0.69503  -0.69371
 Alpha  occ. eigenvalues --   -0.67111  -0.66967  -0.63755  -0.60101  -0.59594
 Alpha  occ. eigenvalues --   -0.57773  -0.57600  -0.56567  -0.55501  -0.54255
 Alpha  occ. eigenvalues --   -0.53563  -0.53251  -0.53094  -0.51638  -0.51395
 Alpha  occ. eigenvalues --   -0.51023  -0.49460  -0.49257  -0.47764  -0.46354
 Alpha  occ. eigenvalues --   -0.46154  -0.44140  -0.43196  -0.42803  -0.41077
 Alpha  occ. eigenvalues --   -0.40348  -0.39148  -0.38831  -0.35990  -0.33227
 Alpha  occ. eigenvalues --   -0.32237  -0.28861
 Alpha virt. eigenvalues --   -0.01402  -0.00327   0.00244   0.01744   0.02217
 Alpha virt. eigenvalues --    0.03073   0.03283   0.03584   0.03798   0.04875
 Alpha virt. eigenvalues --    0.05139   0.05337   0.05827   0.06526   0.06794

 Mulliken charges:
               1
     1  C   -1.271041
     2  N   -0.391315
     3  C    0.117016
     4  O   -0.365166
     5  N   -0.302390
     6  C   -0.520416
     7  C   -0.131016
     8  C   -1.033790
     9  C   -0.009700
    10  C   -0.248509
    11  C   -0.108261
    12  C    0.139702
    13  C   -0.246459
    14  H    0.379816
    15  H    0.354536
    16  H    0.273124
    17  H    0.268737
    18  H    0.241470
    19  H    0.266753
    20  H    0.264310
    21  H    0.272997
    22  H    0.266627
    23  H    0.342019
    24  Cl   0.405883
    25  H    0.273767
    26  C    0.725553
    27  H    0.312007
    28  F   -0.058498
    29  F   -0.140567
    30  F   -0.077191
 Sum of Mulliken charges =  -0.00000

 Dipole moment (field-independent basis, Debye):
    X=              5.6442    Y=              5.4544    Z=              0.7659  Tot=              7.8863
 Quadrupole moment (field-independent basis, Debye-Ang):
   XX=            -97.9925   YY=           -115.6583   ZZ=           -115.3388
   XY=              7.0420   XZ=              2.8232   YZ=              0.9584

  Exact polarizability:     242.094     -13.367     189.936       1.802       0.429     110.595
 Approx polarizability:     222.037      -7.815     211.600       1.930       1.567     131.400

                      1                      2                      3
                      A                      A                      A
 Frequencies --     14.7813                24.8824                28.6406
 Red. masses --     18.2881                 4.7371                 3.6305
 Frc consts  --      0.0024                 0.0017                 0.0018
 IR Inten    --      0.0206                 4.1623                 7.0331

                      4                      5                      6
                      A                      A                      A
 Frequencies --     52.9515                55.6463                76.1370
 Red. masses --      5.4679                 2.4550                 3.0832
 Frc consts  --      0.0090                 0.0045                 0.0105
 IR Inten    --      0.0570                 7.0273                 1.4550

                      7                      8                      9
                      A                      A                      A
 Frequencies --    115.6240               118.1857               155.1852
 Red. masses --      6.4592                 8.3086                 8.0742
 Frc consts  --      0.0509                 0.0684                 0.1146
 IR Inten    --      2.0098                 0.2326                 8.4984

                     10                     11                     12
                      A                      A                      A
 Frequencies --    186.6437               191.5537               227.3933
 Red. masses --      3.4330                 4.5861                 6.0260
 Frc consts  --      0.0705                 0.0991                 0.1836
 IR Inten    --      0.6839                 0.5962                 3.6319

                     13                     14                     15
                      A                      A                      A
 Frequencies --    231.2519               242.7604               248.3736
 Red. masses --      1.2048                 3.6557                 4.9658
 Frc consts  --      0.0380                 0.1269                 0.1805
 IR Inten    --      0.2770                 2.2290                10.6026

                     16                     17                     18
                      A                      A                      A
 Frequencies --    317.7333               319.9120               333.6395
 Red. masses --      6.0115                 1.5822                 7.2796
 Frc consts  --      0.3576                 0.0954                 0.4774
 IR Inten    --      6.9272                90.2724                 0.5094

                     19                     20                     21
                      A                      A                      A
 Frequencies --    349.9104               358.4223               445.5092
 Red. masses --      4.0271                 7.3307                 8.1616
 Frc consts  --      0.2905                 0.5549                 0.9544
 IR Inten    --      9.0213                 3.8870                 3.4730

                     22                     23                     24
                      A                      A                      A
 Frequencies --    456.6191               483.5859               517.1425
 Red. masses --      4.5098                 5.4724                 4.3589
 Frc consts  --      0.5540                 0.7540                 0.6868
 IR Inten    --     11.6761                 3.1330                14.5938

                     25                     26                     27
                      A                      A                      A
 Frequencies --    526.2491               577.5301               601.3485
 Red. masses --      1.4132                 5.6481                10.2308
 Frc consts  --      0.2306                 1.1099                 2.1798
 IR Inten    --    137.9749                 4.0288                 0.2606

                     28                     29                     30
                      A                      A                      A
 Frequencies --    652.1635               655.3195               714.1304
 Red. masses --      5.0001                 5.4934                 3.4385
 Frc consts  --      1.2530                 1.3900                 1.0332
 IR Inten    --     12.6827                17.7403                24.3184

                     31                     32                     33
                      A                      A                      A
 Frequencies --    715.5744               756.7380               776.4464
 Red. masses --      5.4315                 1.1797                 5.3093
 Frc consts  --      1.6386                 0.3980                 1.8859
 IR Inten    --     39.6949                 9.0939                 9.0476

                     34                     35                     36
                      A                      A                      A
 Frequencies --    800.2664               854.9065               888.3580
 Red. masses --      6.4001                10.6420                 1.5484
 Frc consts  --      2.4150                 4.5826                 0.7200
 IR Inten    --      5.7263                52.8051                62.0011

                     37                     38                     39
                      A                      A                      A
 Frequencies --    901.6625               902.9969               927.0745
 Red. masses --      1.4443                 1.1931                 1.8532
 Frc consts  --      0.6918                 0.5732                 0.9384
 IR Inten    --      4.7835                 3.0646                 0.2579

                     40                     41                     42
                      A                      A                      A
 Frequencies --    928.6249               969.5569              1012.0809
 Red. masses --      1.4107                 4.8156                 5.9643
 Frc consts  --      0.7167                 2.6671                 3.5995
 IR Inten    --     16.7312                53.7560                12.1611

                     43                     44                     45
                      A                      A                      A
 Frequencies --   1049.3419              1081.0130              1138.2736
 Red. masses --      4.1732                 2.5954                 2.2063
 Frc consts  --      2.7074                 1.7869                 1.6843
 IR Inten    --     18.0339                21.3936                54.4951

                     46                     47                     48
                      A                      A                      A
 Frequencies --   1149.1650              1161.9986              1166.1111
 Red. masses --      2.5500                 1.7033                 2.5750
 Frc consts  --      1.9841                 1.3551                 2.0631
 IR Inten    --     18.3001                 5.1541                12.4661

                     49                     50                     51
                      A                      A                      A
 Frequencies --   1181.3290              1182.6196              1214.7877
 Red. masses --     10.3909                 1.8546                 6.3827
 Frc consts  --      8.5437                 1.5282                 5.5496
 IR Inten    --    322.3984                11.1397               317.8083

                     52                     53                     54
                      A                      A                      A
 Frequencies --   1243.8041              1272.2435              1286.8580
 Red. masses --      1.8126                 2.3691                 1.3016
 Frc consts  --      1.6522                 2.2593                 1.2699
 IR Inten    --    412.0092                34.8638               110.9276

                     55                     56                     57
                      A                      A                      A
 Frequencies --   1304.1372              1330.5079              1341.7484
 Red. masses --      1.9619                 1.1851                 2.1140
 Frc consts  --      1.9660                 1.2360                 2.2423
 IR Inten    --    130.6560                47.1000               145.6645

                     58                     59                     60
                      A                      A                      A
 Frequencies --   1352.3553              1387.8336              1424.3871
 Red. masses --      1.3524                 4.6329                 1.5048
 Frc consts  --      1.4572                 5.2575                 1.7988
 IR Inten    --     34.3319               290.7813                 1.8692

                     61                     62                     63
                      A                      A                      A
 Frequencies --   1430.8560              1482.8776              1502.4614
 Red. masses --      1.3257                 3.6370                 1.0624
 Frc consts  --      1.5992                 4.7120                 1.4130
 IR Inten    --      2.2508               116.4452                10.8652

                     64                     65                     66
                      A                      A                      A
 Frequencies --   1513.5169              1516.0944              1519.1704
 Red. masses --      3.3586                 1.0470                 1.0844
 Frc consts  --      4.5330                 1.4179                 1.4746
 IR Inten    --    440.7106                13.2895                 3.7151

                     67                     68                     69
                      A                      A                      A
 Frequencies --   1533.7469              1554.5617              1616.5800
 Red. masses --      1.0969                 1.8850                 1.9909
 Frc consts  --      1.5203                 2.6840                 3.0655
 IR Inten    --      9.3953               557.5849               463.7316

                     70                     71                     72
                      A                      A                      A
 Frequencies --   1670.7894              1686.1052              1801.5027
 Red. masses --      5.7463                 5.0970                 7.3206
 Frc consts  --      9.4511                 8.5376                13.9981
 IR Inten    --    271.4830                 8.4289               390.1289

                     73                     74                     75
                      A                      A                      A
 Frequencies --   3056.0086              3058.9261              3070.8357
 Red. masses --      1.0657                 1.0686                 1.0372
 Frc consts  --      5.8641                 5.8914                 5.7628
 IR Inten    --     13.9502                47.6341                35.3257

                     76                     77                     78
                      A                      A                      A
 Frequencies --   3099.9392              3134.0211              3142.0262
 Red. masses --      1.0974                 1.0986                 1.1016
 Frc consts  --      6.2132                 6.3576                 6.4076
 IR Inten    --     15.3637                 1.8226                58.7585

                     79                     80                     81
                      A                      A                      A
 Frequencies --   3147.1395              3215.5751              3258.3540
 Red. masses --      1.1021                 1.0926                 1.0931
 Frc consts  --      6.4315                 6.6564                 6.8378
 IR Inten    --     31.7242                 1.6390                 4.8782

                     82                     83                     84
                      A                      A                      A
 Frequencies --   3279.1520              3633.8549              3645.1826
 Red. masses --      1.0924                 1.0779                 1.0773
 Frc consts  --      6.9210                 8.3864                 8.4337
 IR Inten    --     22.3639                10.0716                86.7184

 - Thermochemistry -
 -------------------
 Temperature   298.150 Kelvin.  Pressure   1.00000 Atm.
 Atom     1 has atomic number  6 and mass  12.00000

 Molecular mass:   280.05903 amu.
 Principal axes and moments of inertia in atomic units:
                           1         2         3
     Eigenvalues --  3450.50983********************
           X            0.99999  -0.00531   0.00028
           Y            0.00531   0.99999   0.00067
           Z           -0.00028  -0.00066   1.00000
 This molecule is an asymmetric top.
 Rotational symmetry number  1.
 Warning -- assumption of classical behavior for rotation
           may cause significant error
 Rotational temperatures (Kelvin)      0.02510     0.00753     0.00593
 Rotational constants (GHZ):           0.52304     0.15690     0.12363
 Zero-point vibrational energy     595449.0 (Joules/Mol)
                                  142.31573 (Kcal/Mol)
 Warning -- explicit consideration of  27 degrees of freedom as
           vibrations may cause significant error
 Vibrational temperatures:     21.27    35.80    41.21    76.19    80.06
          (Kelvin)            109.54   166.36   170.04   223.28   268.54
                              275.60   327.17   332.72   349.28   357.35
                              457.15   460.28   480.03   503.44   515.69
                              640.99   656.97   695.77   744.05   757.16
                              830.94   865.21   938.32   942.86  1027.47
                             1029.55  1088.78  1117.13  1151.40  1230.02
                             1278.15  1297.29  1299.21  1333.85  1336.08
                             1394.98  1456.16  1509.77  1555.34  1637.72
                             1653.39  1671.86  1677.77  1699.67  1701.53
                             1747.81  1789.56  1830.47  1851.50  1876.36
                             1914.30  1930.48  1945.74  1996.78  2049.38
                             2058.68  2133.53  2161.71  2177.61  2181.32
                             2185.75  2206.72  2236.67  2325.90  2403.89
                             2425.93  2591.96  4396.91  4401.11  4418.25
                             4460.12  4509.16  4520.67  4528.03  4626.50
                             4688.04  4717.97  5228.31  5244.60

 Zero-point correction=                           0.226795 (Hartree/Particle)
 Thermal correction to Energy=                    0.244819
 Thermal correction to Enthalpy=                  0.245763
 Thermal correction to Gibbs Free Energy=         0.176738
 Sum of electronic and zero-point Energies=          -1370.588316
 Sum of electronic and thermal Energies=             -1370.570292
 Sum of electronic and thermal Enthalpies=           -1370.569348
 Sum of electronic and thermal Free Energies=        -1370.638373

                     E (Thermal)             CV                S
                      KCal/Mol        Cal/Mol-Kelvin    Cal/Mol-Kelvin
 Total                  153.626             64.442            145.275
 Electronic               0.000              0.000              0.000
 Translational            0.889              2.981             42.788
 Rotational               0.889              2.981             34.715
 Vibrational            151.849             58.480             67.772
 Vibration     1          0.593              1.986              7.235
 Vibration     2          0.593              1.985              6.201
 Vibration     3          0.593              1.984              5.921
 Vibration     4          0.596              1.976              4.704
 Vibration     5          0.596              1.975              4.606
 Vibration     6          0.599              1.965              3.988
 Vibration     7          0.608              1.936              3.172
 Vibration     8          0.608              1.934              3.130
 Vibration     9          0.620              1.897              2.608
 Vibration    10          0.632              1.858              2.261
 Vibration    11          0.634              1.852              2.213
 Vibration    12          0.651              1.799              1.899
 Vibration    13          0.653              1.793              1.869
 Vibration    14          0.659              1.775              1.783
 Vibration    15          0.662              1.765              1.742
 Vibration    16          0.704              1.640              1.322
 Vibration    17          0.706              1.635              1.311
 Vibration    18          0.715              1.608              1.242
 Vibration    19          0.727              1.575              1.167
 Vibration    20          0.733              1.558              1.129
 Vibration    21          0.805              1.371              0.809
 Vibration    22          0.815              1.346              0.776
 Vibration    23          0.840              1.286              0.700
 Vibration    24          0.872              1.212              0.617
 Vibration    25          0.881              1.192              0.596
 Vibration    26          0.934              1.080              0.490
 Vibration    27          0.960              1.029              0.447

 Optimization completed.
    -- Stationary point found.
 Normal termination of Gaussian 16 at Tue Sep 15 14:41:09 2020.
