 Gaussian 16, Revision C.01,

 ----------------------------------------------------------------------
 # M062X/6-311+G* SCF=Tight INT(grid=ultrafine) OPT IOP(2/17=4) Empiric
 alDispersion=GD3 SCRF=(SMD,Solvent=h2o) MaxDisk=10000MB
 ----------------------------------------------------------------------

 --------------------------------
 NM3.M062X_6-311pGd_opt_water_GD3
 --------------------------------
 Symbolic Z-matrix:
 Charge =  0 Multiplicity = 1

 SCF Done:  E(RM062X) =  -1370.81802138     A.U. after   15 cycles
 Optimization completed.
    -- Stationary point found.
 Normal termination of Gaussian 16 at Tue Sep 15 10:51:35 2020.
 Gaussian 16:  ES64L-G16RevC.01  3-Jul-2019

 ----------------------------------------------------------------------
 # M062X/6-311+G* SCF=Tight INT(grid=ultrafine) EmpiricalDispersion=GD3
  SCRF=(SMD,Solvent=h2o) Freq=Noraman MaxDisk=10000MB geom=check guess=
 read IOP(2/17=4)
 ----------------------------------------------------------------------

 --------------------------------
 NM3.M062X_6-311pGd_opt_water_GD3
 --------------------------------
 Structure from the checkpoint file:  "NM3.M062X_6-311pGd_opt_water_GD3.chk"
 Charge =  0 Multiplicity = 1

                         Standard orientation:
 ---------------------------------------------------------------------
 Center     Atomic      Atomic             Coordinates (Angstroms)
 Number     Number       Type             X           Y           Z
 ---------------------------------------------------------------------
      1          6           0        0.168512    0.720382   -0.217717
      2          7           0       -1.203788    0.912480   -0.400863
      3          6           0       -2.201807    0.047636    0.017792
      4          8           0       -1.964025   -1.041674    0.544555
      5          7           0       -3.455368    0.492153   -0.193944
      6          6           0       -4.612447   -0.317283    0.168651
      7          6           0       -5.897833    0.411882   -0.184368
      8          6           0       -7.119749   -0.422232    0.180143
      9          6           0        0.759159   -0.548238   -0.200007
     10          6           0        2.132719   -0.645875   -0.040039
     11          6           0        2.955181    0.470313    0.081719
     12          6           0        2.344992    1.712754    0.038655
     13          6           0        0.973719    1.856507   -0.101436
     14          1           0       -1.485230    1.860256   -0.621854
     15          1           0       -3.608903    1.370575   -0.670408
     16          1           0       -4.582572   -0.530950    1.240638
     17          1           0       -4.566353   -1.275683   -0.356902
     18          1           0       -5.902782    0.635952   -1.255732
     19          1           0       -5.925804    1.369988    0.343748
     20          1           0       -7.119082   -1.374502   -0.356392
     21          1           0       -8.042983    0.102666   -0.071886
     22          1           0       -7.140569   -0.640969    1.250858
     23          1           0        0.155091   -1.434106   -0.319424
     24         17           0        3.328980    3.147126    0.183552
     25          1           0        0.523347    2.842626   -0.118738
     26          6           0        2.790041   -1.995138   -0.032141
     27          1           0        4.027700    0.373585    0.200650
     28          9           0        3.580584   -2.171803   -1.107853
     29          9           0        3.579988   -2.161903    1.043475
     30          9           0        1.911302   -3.004502   -0.029540
 ---------------------------------------------------------------------

 SCF Done:  E(RM062X) =  -1370.81802138     A.U. after    2 cycles

 The electronic state is 1-A.
 Alpha  occ. eigenvalues -- -102.68665 -25.28743 -25.28396 -25.28311 -19.60084
 Alpha  occ. eigenvalues --  -14.78901 -14.77138 -10.81066 -10.68614 -10.62337
 Alpha  occ. eigenvalues --  -10.61535 -10.58573 -10.56818 -10.56692 -10.56667
 Alpha  occ. eigenvalues --  -10.56454 -10.53058 -10.51753  -9.82936  -7.55444
 Alpha  occ. eigenvalues --   -7.54778  -7.54763  -1.47880  -1.38586  -1.38128
 Alpha  occ. eigenvalues --   -1.18885  -1.06900  -1.03751  -1.00917  -0.95932
 Alpha  occ. eigenvalues --   -0.89818  -0.87737  -0.84872  -0.82116  -0.78328
 Alpha  occ. eigenvalues --   -0.74382  -0.72862  -0.70232  -0.70213  -0.68709
 Alpha  occ. eigenvalues --   -0.66851  -0.66553  -0.63443  -0.59844  -0.59034
 Alpha  occ. eigenvalues --   -0.58452  -0.58199  -0.56371  -0.55712  -0.54173
 Alpha  occ. eigenvalues --   -0.53995  -0.53728  -0.52409  -0.52170  -0.51669
 Alpha  occ. eigenvalues --   -0.51180  -0.49458  -0.48783  -0.46795  -0.45921
 Alpha  occ. eigenvalues --   -0.45887  -0.44250  -0.42457  -0.42086  -0.40007
 Alpha  occ. eigenvalues --   -0.39376  -0.39110  -0.38395  -0.36664  -0.33181
 Alpha  occ. eigenvalues --   -0.32173  -0.28708
 Alpha virt. eigenvalues --   -0.01256   0.00012   0.01019   0.02225   0.02609
 Alpha virt. eigenvalues --    0.03180   0.03552   0.03613   0.04619   0.04922
 Alpha virt. eigenvalues --    0.05072   0.05362   0.06068   0.06339   0.06977

 Mulliken charges:
               1
     1  C   -0.933259
     2  N   -0.313680
     3  C    0.012925
     4  O   -0.524333
     5  N   -0.413550
     6  C   -0.519490
     7  C   -0.161413
     8  C   -1.041891
     9  C   -0.431316
    10  C   -0.901846
    11  C    0.165500
    12  C    0.394941
    13  C    0.040478
    14  H    0.426111
    15  H    0.452154
    16  H    0.277141
    17  H    0.278405
    18  H    0.267655
    19  H    0.268268
    20  H    0.269393
    21  H    0.280316
    22  H    0.269985
    23  H    0.325869
    24  Cl   0.379594
    25  H    0.317837
    26  C    0.776829
    27  H    0.340177
    28  F   -0.073894
    29  F   -0.086908
    30  F   -0.141997
 Sum of Mulliken charges =   0.00000

 Dipole moment (field-independent basis, Debye):
    X=             -6.7176    Y=              7.0144    Z=             -2.6521  Tot=             10.0678
 Quadrupole moment (field-independent basis, Debye-Ang):
   XX=            -95.2535   YY=           -114.6482   ZZ=           -115.7377
   XY=             -9.8077   XZ=              6.2173   YZ=             -0.7283

  Exact polarizability:     277.148      13.154     235.260       8.007      -5.043     148.351
 Approx polarizability:     222.621       7.688     206.849       7.767      -4.390     135.606

                      1                      2                      3
                      A                      A                      A
 Frequencies --     17.7021                17.9818                28.6288
 Red. masses --      4.7875                10.8832                 2.1674
 Frc consts  --      0.0009                 0.0021                 0.0010
 IR Inten    --      0.0231                 0.0298                 0.5129

                      4                      5                      6
                      A                      A                      A
 Frequencies --     40.4684                58.2260                65.9406
 Red. masses --      4.0983                 6.1228                 4.5497
 Frc consts  --      0.0040                 0.0122                 0.0117
 IR Inten    --     39.4226                 9.4845                 9.2449

                      7                      8                      9
                      A                      A                      A
 Frequencies --    109.4320               123.5707               141.9833
 Red. masses --      7.9653                 7.5997                 2.6901
 Frc consts  --      0.0562                 0.0684                 0.0320
 IR Inten    --      0.7590                 1.0625                16.7038

                     10                     11                     12
                      A                      A                      A
 Frequencies --    159.3130               191.6561               225.0880
 Red. masses --      7.9951                 5.6681                 7.0672
 Frc consts  --      0.1196                 0.1227                 0.2110
 IR Inten    --      7.2559                 0.2429                 5.5664

                     13                     14                     15
                      A                      A                      A
 Frequencies --    239.4169               245.0438               262.4659
 Red. masses --      3.8294                 1.1998                 4.7429
 Frc consts  --      0.1293                 0.0424                 0.1925
 IR Inten    --      4.0899                 0.1894                 6.6139

                     16                     17                     18
                      A                      A                      A
 Frequencies --    331.1971               335.2676               336.5297
 Red. masses --      7.3748                 1.8660                 2.2960
 Frc consts  --      0.4766                 0.1236                 0.1532
 IR Inten    --     10.6437                37.7166                38.3749

                     19                     20                     21
                      A                      A                      A
 Frequencies --    345.5557               352.2583               447.5883
 Red. masses --      7.7167                 4.9356                 8.5513
 Frc consts  --      0.5429                 0.3608                 1.0093
 IR Inten    --      4.0668                30.0182                16.5863

                     22                     23                     24
                      A                      A                      A
 Frequencies --    454.5229               480.8202               498.8823
 Red. masses --      4.6531                 5.8395                 1.2156
 Frc consts  --      0.5664                 0.7954                 0.1783
 IR Inten    --      6.1491                 3.4332               260.2399

                     25                     26                     27
                      A                      A                      A
 Frequencies --    516.9608               576.0173               599.6221
 Red. masses --     10.2002                 5.5045                 9.9744
 Frc consts  --      1.6061                 1.0761                 2.1130
 IR Inten    --      9.4519                 3.9550                 0.6867

                     28                     29                     30
                      A                      A                      A
 Frequencies --    647.0723               654.8682               705.3178
 Red. masses --      5.2098                 5.7345                 2.4508
 Frc consts  --      1.2852                 1.4489                 0.7183
 IR Inten    --     11.5395                15.4403                37.3819

                     31                     32                     33
                      A                      A                      A
 Frequencies --    710.9209               757.6826               777.3269
 Red. masses --     11.5620                 1.1601                 5.3466
 Frc consts  --      3.4429                 0.3924                 1.9034
 IR Inten    --     60.3616                18.1651                20.4505

                     34                     35                     36
                      A                      A                      A
 Frequencies --    799.0489               849.1835               883.9179
 Red. masses --      6.1939                11.1279                 1.5834
 Frc consts  --      2.3300                 4.7279                 0.7289
 IR Inten    --     23.7268                67.0722                80.9527

                     37                     38                     39
                      A                      A                      A
 Frequencies --    905.7525               907.3009               915.8551
 Red. masses --      1.5808                 1.1618                 1.3886
 Frc consts  --      0.7641                 0.5635                 0.6863
 IR Inten    --     44.6314                 7.2195                 3.2800

                     40                     41                     42
                      A                      A                      A
 Frequencies --    928.3597               967.9285              1013.3674
 Red. masses --      1.7808                 5.1897                 6.0132
 Frc consts  --      0.9043                 2.8647                 3.6382
 IR Inten    --      0.3996                80.6353                15.5337

                     43                     44                     45
                      A                      A                      A
 Frequencies --   1051.0979              1082.7761              1138.7869
 Red. masses --      4.1164                 2.6225                 2.7120
 Frc consts  --      2.6795                 1.8115                 2.0722
 IR Inten    --     30.8152                32.2371               133.4821

                     46                     47                     48
                      A                      A                      A
 Frequencies --   1143.3043              1149.5623              1160.1422
 Red. masses --      7.8457                 2.4165                 1.9876
 Frc consts  --      6.0424                 1.8815                 1.5762
 IR Inten    --    413.7732                38.9679                25.0160

                     49                     50                     51
                      A                      A                      A
 Frequencies --   1172.8503              1182.4367              1189.5537
 Red. masses --      3.3400                 1.6243                 4.3426
 Frc consts  --      2.7070                 1.3381                 3.6205
 IR Inten    --      8.5760                 0.2431               396.4428

                     52                     53                     54
                      A                      A                      A
 Frequencies --   1260.7363              1281.2887              1287.3419
 Red. masses --      2.0099                 2.1471                 1.2023
 Frc consts  --      1.8823                 2.0768                 1.1739
 IR Inten    --    400.9861               187.5453                11.9860

                     55                     56                     57
                      A                      A                      A
 Frequencies --   1304.0866              1334.6233              1344.2122
 Red. masses --      1.8764                 1.0684                 1.5425
 Frc consts  --      1.8801                 1.1212                 1.6422
 IR Inten    --    189.6597                 0.6345                62.6734

                     58                     59                     60
                      A                      A                      A
 Frequencies --   1352.0823              1371.7955              1416.7422
 Red. masses --      2.0750                 4.2468                 1.2655
 Frc consts  --      2.2350                 4.7085                 1.4965
 IR Inten    --    140.5420               435.1632                 0.5745

                     61                     62                     63
                      A                      A                      A
 Frequencies --   1425.0438              1477.4718              1485.8999
 Red. masses --      1.6383                 3.4534                 1.0591
 Frc consts  --      1.9602                 4.4416                 1.3777
 IR Inten    --     10.8957               193.4596                 6.4036

                     64                     65                     66
                      A                      A                      A
 Frequencies --   1501.4352              1508.0682              1509.3576
 Red. masses --      1.0382                 2.1442                 1.3591
 Frc consts  --      1.3790                 2.8732                 1.8242
 IR Inten    --     14.1173               430.6036               112.6599

                     67                     68                     69
                      A                      A                      A
 Frequencies --   1529.4490              1567.1561              1591.8643
 Red. masses --      1.0907                 1.9922                 2.2677
 Frc consts  --      1.5032                 2.8828                 3.3857
 IR Inten    --     35.6524               376.8192               907.1067

                     70                     71                     72
                      A                      A                      A
 Frequencies --   1659.6813              1684.8078              1698.6129
 Red. masses --      7.4634                 4.7904                 4.7289
 Frc consts  --     12.1125                 8.0117                 8.0390
 IR Inten    --    276.0362                20.4151               772.8403

                     73                     74                     75
                      A                      A                      A
 Frequencies --   3067.4978              3068.4410              3076.3052
 Red. masses --      1.0602                 1.0371                 1.0585
 Frc consts  --      5.8778                 5.7534                 5.9018
 IR Inten    --     10.5229                25.7905                95.8508

                     76                     77                     78
                      A                      A                      A
 Frequencies --   3098.5844              3118.9177              3137.9762
 Red. masses --      1.1035                 1.1071                 1.1043
 Frc consts  --      6.2425                 6.3454                 6.4067
 IR Inten    --      0.6554                37.9582                98.4873

                     79                     80                     81
                      A                      A                      A
 Frequencies --   3144.9826              3229.7608              3240.9780
 Red. masses --      1.1025                 1.0935                 1.0937
 Frc consts  --      6.4251                 6.7205                 6.7688
 IR Inten    --     46.3566                 1.5124                 5.6850

                     82                     83                     84
                      A                      A                      A
 Frequencies --   3287.6929              3601.2015              3635.8872
 Red. masses --      1.0924                 1.0783                 1.0794
 Frc consts  --      6.9567                 8.2390                 8.4074
 IR Inten    --     11.7376               116.1952               151.7031

 - Thermochemistry -
 -------------------
 Temperature   298.150 Kelvin.  Pressure   1.00000 Atm.
 Atom     1 has atomic number  6 and mass  12.00000

 Molecular mass:   280.05903 amu.
 Principal axes and moments of inertia in atomic units:
                           1         2         3
     Eigenvalues --  3425.16255********************
           X            0.99998   0.00640  -0.00021
           Y           -0.00640   0.99997  -0.00422
           Z            0.00019   0.00422   0.99999
 This molecule is an asymmetric top.
 Rotational symmetry number  1.
 Warning -- assumption of classical behavior for rotation
           may cause significant error
 Rotational temperatures (Kelvin)      0.02529     0.00750     0.00596
 Rotational constants (GHZ):           0.52691     0.15635     0.12420
 Zero-point vibrational energy     593327.0 (Joules/Mol)
                                  141.80857 (Kcal/Mol)
 Warning -- explicit consideration of  27 degrees of freedom as
           vibrations may cause significant error
 Vibrational temperatures:     25.47    25.87    41.19    58.23    83.77
          (Kelvin)             94.87   157.45   177.79   204.28   229.22
                              275.75   323.85   344.47   352.56   377.63
                              476.52   482.38   484.19   497.18   506.82
                              643.98   653.96   691.79   717.78   743.79
                              828.76   862.72   930.99   942.21  1014.79
                             1022.86  1090.14  1118.40  1149.65  1221.79
                             1271.76  1303.18  1305.40  1317.71  1335.70
                             1392.63  1458.01  1512.30  1557.87  1638.46
                             1644.96  1653.96  1669.19  1687.47  1701.26
                             1711.50  1813.92  1843.49  1852.20  1876.29
                             1920.23  1934.02  1945.34  1973.71  2038.38
                             2050.32  2125.75  2137.88  2160.23  2169.77
                             2171.63  2200.54  2254.79  2290.34  2387.91
                             2424.06  2443.93  4413.45  4414.80  4426.12
                             4458.17  4487.43  4514.85  4524.93  4646.91
                             4663.04  4730.26  5181.33  5231.23

 Zero-point correction=                           0.225986 (Hartree/Particle)
 Thermal correction to Energy=                    0.244113
 Thermal correction to Enthalpy=                  0.245057
 Thermal correction to Gibbs Free Energy=         0.175393
 Sum of electronic and zero-point Energies=          -1370.592035
 Sum of electronic and thermal Energies=             -1370.573908
 Sum of electronic and thermal Enthalpies=           -1370.572964
 Sum of electronic and thermal Free Energies=        -1370.642628

                     E (Thermal)             CV                S
                      KCal/Mol        Cal/Mol-Kelvin    Cal/Mol-Kelvin
 Total                  153.183             64.610            146.620
 Electronic               0.000              0.000              0.000
 Translational            0.889              2.981             42.788
 Rotational               0.889              2.981             34.706
 Vibrational            151.406             58.649             69.126
 Vibration     1          0.593              1.986              6.877
 Vibration     2          0.593              1.986              6.845
 Vibration     3          0.593              1.984              5.922
 Vibration     4          0.594              1.981              5.236
 Vibration     5          0.596              1.974              4.516
 Vibration     6          0.597              1.971              4.271
 Vibration     7          0.606              1.942              3.279
 Vibration     8          0.610              1.929              3.044
 Vibration     9          0.615              1.911              2.777
 Vibration    10          0.621              1.892              2.558
 Vibration    11          0.634              1.851              2.212
 Vibration    12          0.650              1.803              1.918
 Vibration    13          0.657              1.780              1.807
 Vibration    14          0.660              1.771              1.766
 Vibration    15          0.670              1.742              1.645
 Vibration    16          0.714              1.613              1.254
 Vibration    17          0.716              1.605              1.235
 Vibration    18          0.717              1.603              1.229
 Vibration    19          0.724              1.584              1.186
 Vibration    20          0.729              1.571              1.156
 Vibration    21          0.807              1.366              0.803
 Vibration    22          0.813              1.351              0.782
 Vibration    23          0.837              1.293              0.708
 Vibration    24          0.854              1.252              0.661
 Vibration    25          0.872              1.212              0.617
 Vibration    26          0.932              1.083              0.493
 Vibration    27          0.958              1.033              0.450

                           ! Non-Optimized Parameters !
 Normal termination of Gaussian 16 at Tue Sep 15 14:23:52 2020.
