 Gaussian 16, Revision C.01,
 Gaussian 16:  ES64L-G16RevC.01  3-Jul-2019

 ----------------------------------------------------------------------
 # DSDPBEP86/AUG-cc-PVTZ SCF=Tight INT(grid=ultrafine) MaxDisk=1400000M
 B
 ----------------------------------------------------------------------

 ----------------------------
 NM3_c2.DSDPBEP86_AUG-cc-PVTZ
 ----------------------------
 Symbolic Z-matrix:
 Charge =  0 Multiplicity = 1

                         Standard orientation:
 ---------------------------------------------------------------------
 Center     Atomic      Atomic             Coordinates (Angstroms)
 Number     Number       Type             X           Y           Z
 ---------------------------------------------------------------------
      1          6           0       -0.136200   -0.056761    0.030045
      2          7           0        1.163368   -0.571491    0.074173
      3          6           0        2.355755    0.138752   -0.031971
      4          8           0        2.414557    1.335406   -0.209911
      5          7           0        3.467815   -0.660422    0.056181
      6          6           0        4.784775   -0.036014    0.079224
      7          6           0        5.874810   -1.090799   -0.040208
      8          6           0        7.264874   -0.462754   -0.025756
      9          6           0       -1.187292   -0.979270   -0.011215
     10          6           0       -2.498622   -0.535492   -0.038731
     11          6           0       -2.808849    0.818444   -0.024361
     12          6           0       -1.752006    1.715212    0.016641
     13          6           0       -0.424061    1.311916    0.044104
     14          1           0        1.228124   -1.576999    0.023801
     15          1           0        3.383196   -1.544866    0.536164
     16          1           0        4.916837    0.553662    0.994131
     17          1           0        4.833054    0.662375   -0.757695
     18          1           0        5.723397   -1.656677   -0.964156
     19          1           0        5.787547   -1.805214    0.787125
     20          1           0        7.387370    0.236729   -0.855964
     21          1           0        8.042997   -1.222359   -0.113103
     22          1           0        7.439681    0.088292    0.901361
     23          1           0       -0.979594   -2.043829   -0.028679
     24         17           0       -2.100969    3.420251    0.029700
     25          1           0        0.370301    2.041734    0.064426
     26          6           0       -3.612284   -1.544150   -0.019668
     27          1           0       -3.833525    1.164761   -0.052939
     28          9           0       -3.976342   -1.851916    1.236522
     29          9           0       -4.708279   -1.094684   -0.642012
     30          9           0       -3.257940   -2.695205   -0.610198
 ---------------------------------------------------------------------

 SCF Done:  E(RDSDPBEP86) =  -1367.77179244     A.U. after   13 cycles
 E2(DSDPBEP86) =    -0.1695076943D+01 E(DSDPBEP86) =    -0.13694668693826D+04

 The electronic state is 1-A.
 Alpha  occ. eigenvalues -- -103.57529 -25.71604 -25.71513 -25.71102 -19.98210
 Alpha  occ. eigenvalues --  -15.13804 -15.11617 -11.09126 -10.97590 -10.90376
 Alpha  occ. eigenvalues --  -10.90319 -10.86735 -10.85973 -10.85168 -10.84745
 Alpha  occ. eigenvalues --  -10.84130 -10.83079 -10.81717 -10.15027  -7.72706
 Alpha  occ. eigenvalues --   -7.72235  -7.72218  -1.58052  -1.48788  -1.48305
 Alpha  occ. eigenvalues --   -1.29169  -1.16724  -1.13080  -1.09073  -1.03480
 Alpha  occ. eigenvalues --   -0.97752  -0.95842  -0.92239  -0.87937  -0.85749
 Alpha  occ. eigenvalues --   -0.80176  -0.78184  -0.75349  -0.74876  -0.74155
 Alpha  occ. eigenvalues --   -0.73868  -0.70582  -0.68729  -0.64346  -0.64026
 Alpha  occ. eigenvalues --   -0.62621  -0.62162  -0.61076  -0.59973  -0.58415
 Alpha  occ. eigenvalues --   -0.58065  -0.57752  -0.56914  -0.56269  -0.55807
 Alpha  occ. eigenvalues --   -0.54882  -0.53062  -0.52608  -0.51224  -0.49854
 Alpha  occ. eigenvalues --   -0.49789  -0.47587  -0.47034  -0.45538  -0.44743
 Alpha  occ. eigenvalues --   -0.44066  -0.41025  -0.40887  -0.39629  -0.36558
 Alpha  occ. eigenvalues --   -0.32925  -0.30080
 Alpha virt. eigenvalues --    0.00275   0.01567   0.02425   0.02581   0.02944
 Alpha virt. eigenvalues --    0.03252   0.03518   0.04074   0.04587   0.04674
 Alpha virt. eigenvalues --    0.04950   0.05123   0.06003   0.06543   0.06621

 Mulliken charges:
               1
     1  C    0.691637
     2  N   -0.351063
     3  C    0.168789
     4  O   -0.785042
     5  N   -0.123096
     6  C   -0.132935
     7  C   -0.414400
     8  C   -0.979764
     9  C   -0.884901
    10  C    0.788609
    11  C   -0.885389
    12  C    0.543574
    13  C   -0.753757
    14  H    0.026524
    15  H    0.048492
    16  H    0.286801
    17  H    0.307779
    18  H    0.251314
    19  H    0.232312
    20  H    0.277964
    21  H    0.276908
    22  H    0.274760
    23  H    0.330793
    24  Cl  -0.424321
    25  H    0.665849
    26  C    1.278720
    27  H    0.464660
    28  F   -0.391377
    29  F   -0.393407
    30  F   -0.396033
 Sum of Mulliken charges =  -0.00000

 Dipole moment (field-independent basis, Debye):
    X=              4.4919    Y=             -3.5380    Z=              0.7804  Tot=              5.7709
 Quadrupole moment (field-independent basis, Debye-Ang):
   XX=           -105.2954   YY=           -115.2644   ZZ=           -113.9437
   XY=            -13.3523   XZ=              3.0599   YZ=             -0.4921

 Normal termination of Gaussian 16 at Mon Sep 21 20:53:10 2020.
