 Gaussian 16, Revision C.01,

 ----------------------------------------------------------------------
 # M062X/6-311+G* SCF=Tight INT(grid=ultrafine) OPT IOP(2/17=4) Empiric
 alDispersion=GD3 MaxDisk=10000MB
 ----------------------------------------------------------------------

 -----------------------------
 NM3_c2.M062X_6-311pGd_opt_GD3
 -----------------------------
 Symbolic Z-matrix:
 Charge =  0 Multiplicity = 1

 SCF Done:  E(RM062X) =  -1370.79917497     A.U. after   15 cycles
 Optimization completed.
    -- Stationary point found.
 Normal termination of Gaussian 16 at Tue Sep 15 10:49:10 2020.
 Gaussian 16:  ES64L-G16RevC.01  3-Jul-2019

 ----------------------------------------------------------------------
 # M062X/6-311+G* SCF=Tight INT(grid=ultrafine) EmpiricalDispersion=GD3
  Freq=Noraman MaxDisk=10000MB geom=check guess=read IOP(2/17=4)
 ----------------------------------------------------------------------

 -----------------------------
 NM3_c2.M062X_6-311pGd_opt_GD3
 -----------------------------
 Structure from the checkpoint file:  "NM3_c2.M062X_6-311pGd_opt_GD3.chk"
 Charge =  0 Multiplicity = 1

                         Standard orientation:
 ---------------------------------------------------------------------
 Center     Atomic      Atomic             Coordinates (Angstroms)
 Number     Number       Type             X           Y           Z
 ---------------------------------------------------------------------
      1          6           0       -0.136200   -0.056761    0.030045
      2          7           0        1.163368   -0.571491    0.074173
      3          6           0        2.355755    0.138752   -0.031971
      4          8           0        2.414557    1.335406   -0.209911
      5          7           0        3.467815   -0.660422    0.056181
      6          6           0        4.784775   -0.036014    0.079224
      7          6           0        5.874810   -1.090799   -0.040208
      8          6           0        7.264874   -0.462754   -0.025756
      9          6           0       -1.187292   -0.979270   -0.011215
     10          6           0       -2.498622   -0.535492   -0.038731
     11          6           0       -2.808849    0.818444   -0.024361
     12          6           0       -1.752006    1.715212    0.016641
     13          6           0       -0.424061    1.311916    0.044104
     14          1           0        1.228124   -1.576999    0.023801
     15          1           0        3.383196   -1.544866    0.536164
     16          1           0        4.916837    0.553662    0.994131
     17          1           0        4.833054    0.662375   -0.757695
     18          1           0        5.723397   -1.656677   -0.964156
     19          1           0        5.787547   -1.805214    0.787125
     20          1           0        7.387370    0.236729   -0.855964
     21          1           0        8.042997   -1.222359   -0.113103
     22          1           0        7.439681    0.088292    0.901361
     23          1           0       -0.979594   -2.043829   -0.028679
     24         17           0       -2.100969    3.420251    0.029700
     25          1           0        0.370301    2.041734    0.064426
     26          6           0       -3.612284   -1.544150   -0.019668
     27          1           0       -3.833525    1.164761   -0.052939
     28          9           0       -3.976342   -1.851916    1.236522
     29          9           0       -4.708279   -1.094684   -0.642012
     30          9           0       -3.257940   -2.695205   -0.610198
 ---------------------------------------------------------------------

 SCF Done:  E(RM062X) =  -1370.79917497     A.U. after    1 cycles

 The electronic state is 1-A.
 Alpha  occ. eigenvalues -- -102.68203 -25.28449 -25.28358 -25.27924 -19.60682
 Alpha  occ. eigenvalues --  -14.80788 -14.78635 -10.80995 -10.69408 -10.62565
 Alpha  occ. eigenvalues --  -10.62485 -10.59104 -10.58422 -10.57673 -10.57224
 Alpha  occ. eigenvalues --  -10.56653 -10.55465 -10.54020  -9.82473  -7.54988
 Alpha  occ. eigenvalues --   -7.54310  -7.54294  -1.47718  -1.38448  -1.37943
 Alpha  occ. eigenvalues --   -1.20149  -1.08421  -1.05038  -1.01266  -0.96158
 Alpha  occ. eigenvalues --   -0.90797  -0.88981  -0.85607  -0.82128  -0.79823
 Alpha  occ. eigenvalues --   -0.75019  -0.73196  -0.70520  -0.70423  -0.70002
 Alpha  occ. eigenvalues --   -0.69632  -0.66220  -0.64693  -0.60492  -0.60097
 Alpha  occ. eigenvalues --   -0.58307  -0.57961  -0.57622  -0.56051  -0.55155
 Alpha  occ. eigenvalues --   -0.54136  -0.53823  -0.53692  -0.52183  -0.51998
 Alpha  occ. eigenvalues --   -0.51649  -0.49873  -0.49686  -0.48536  -0.47235
 Alpha  occ. eigenvalues --   -0.46599  -0.44584  -0.44264  -0.43271  -0.42180
 Alpha  occ. eigenvalues --   -0.41508  -0.39067  -0.38619  -0.36811  -0.34261
 Alpha  occ. eigenvalues --   -0.32300  -0.29491
 Alpha virt. eigenvalues --   -0.01530  -0.01396  -0.00435   0.01048   0.01905
 Alpha virt. eigenvalues --    0.02283   0.02918   0.03014   0.03912   0.04357
 Alpha virt. eigenvalues --    0.04739   0.05157   0.05529   0.06001   0.06382

 Mulliken charges:
               1
     1  C   -0.523436
     2  N   -0.378624
     3  C    0.129103
     4  O   -0.334235
     5  N   -0.278510
     6  C   -0.531869
     7  C   -0.117609
     8  C   -1.016299
     9  C   -0.208451
    10  C   -0.994713
    11  C   -0.131083
    12  C    0.579772
    13  C   -0.349482
    14  H    0.344120
    15  H    0.323167
    16  H    0.262813
    17  H    0.271260
    18  H    0.263172
    19  H    0.232790
    20  H    0.262146
    21  H    0.269838
    22  H    0.260387
    23  H    0.258759
    24  Cl   0.438377
    25  H    0.331882
    26  C    0.590133
    27  H    0.302392
    28  F   -0.048675
    29  F   -0.096747
    30  F   -0.110379
 Sum of Mulliken charges =  -0.00000

 Dipole moment (field-independent basis, Debye):
    X=              4.6614    Y=             -3.4111    Z=              0.8080  Tot=              5.8324
 Quadrupole moment (field-independent basis, Debye-Ang):
   XX=           -104.9747   YY=           -115.0843   ZZ=           -115.0658
   XY=            -13.7490   XZ=              3.1072   YZ=             -0.5760

  Exact polarizability:     215.070      -9.738     171.299       1.040      -0.625      99.310
 Approx polarizability:     213.783      -8.131     219.961       1.457      -1.632     131.630

                      1                      2                      3
                      A                      A                      A
 Frequencies --      5.2260                16.7210                21.5187
 Red. masses --      2.6551                16.4090                 4.3299
 Frc consts  --      0.0000                 0.0027                 0.0012
 IR Inten    --      5.0349                 0.0554                 0.0071

                      4                      5                      6
                      A                      A                      A
 Frequencies --     53.1118                58.6598                73.0792
 Red. masses --      4.2645                 4.1248                 3.2081
 Frc consts  --      0.0071                 0.0084                 0.0101
 IR Inten    --      1.8525                 5.2353                 0.8860

                      7                      8                      9
                      A                      A                      A
 Frequencies --    113.2824               126.8333               143.4235
 Red. masses --      8.2829                 6.6574                 9.5668
 Frc consts  --      0.0626                 0.0631                 0.1159
 IR Inten    --      0.2353                 5.6431                 1.7809

                     10                     11                     12
                      A                      A                      A
 Frequencies --    181.1407               193.0648               228.5382
 Red. masses --      2.7328                 4.9839                 6.8990
 Frc consts  --      0.0528                 0.1095                 0.2123
 IR Inten    --      0.3373                 0.1953                 0.3228

                     13                     14                     15
                      A                      A                      A
 Frequencies --    236.6291               240.4118               248.0577
 Red. masses --      1.4433                 2.1725                 5.3715
 Frc consts  --      0.0476                 0.0740                 0.1947
 IR Inten    --      0.4613                 1.6882                 5.8054

                     16                     17                     18
                      A                      A                      A
 Frequencies --    323.6507               331.6546               333.9092
 Red. masses --      9.3039                 5.1636                 3.4311
 Frc consts  --      0.5742                 0.3346                 0.2254
 IR Inten    --      0.7564                 8.3850                43.6953

                     19                     20                     21
                      A                      A                      A
 Frequencies --    352.4427               375.8686               430.8719
 Red. masses --      2.1499                 4.1579                 7.7706
 Frc consts  --      0.1573                 0.3461                 0.8500
 IR Inten    --     39.2423                12.8107                 1.6872

                     22                     23                     24
                      A                      A                      A
 Frequencies --    469.4821               474.5079               503.8477
 Red. masses --      4.6633                 4.1800                 1.4512
 Frc consts  --      0.6056                 0.5545                 0.2171
 IR Inten    --     10.3446                 4.0869               109.9815

                     25                     26                     27
                      A                      A                      A
 Frequencies --    518.5434               581.3313               601.3230
 Red. masses --      6.1234                 5.4855                 9.9095
 Frc consts  --      0.9701                 1.0922                 2.1111
 IR Inten    --      5.7543                 0.0881                 0.4632

                     28                     29                     30
                      A                      A                      A
 Frequencies --    650.9500               652.2232               711.2341
 Red. masses --      5.3423                 5.4540                 2.3346
 Frc consts  --      1.3337                 1.3670                 0.6958
 IR Inten    --     14.0110                 8.4723                24.0445

                     31                     32                     33
                      A                      A                      A
 Frequencies --    721.3942               754.4672               774.1600
 Red. masses --     12.1802                 1.2062                 4.6489
 Frc consts  --      3.7346                 0.4045                 1.6416
 IR Inten    --     41.8417                 6.8695                 6.4059

                     34                     35                     36
                      A                      A                      A
 Frequencies --    796.3970               863.5301               888.3608
 Red. masses --      6.1454                10.2003                 1.5848
 Frc consts  --      2.2965                 4.4815                 0.7369
 IR Inten    --      8.9218                44.6287                21.2479

                     37                     38                     39
                      A                      A                      A
 Frequencies --    890.1727               901.8822               925.1701
 Red. masses --      1.5251                 1.1933                 1.8624
 Frc consts  --      0.7120                 0.5719                 0.9392
 IR Inten    --     34.2042                 2.3757                 1.8438

                     40                     41                     42
                      A                      A                      A
 Frequencies --    929.3107               969.3541              1013.5792
 Red. masses --      1.3959                 4.5487                 5.9748
 Frc consts  --      0.7103                 2.5183                 3.6165
 IR Inten    --      6.7252                44.9605                 5.8032

                     43                     44                     45
                      A                      A                      A
 Frequencies --   1047.8249              1079.1456              1139.1106
 Red. masses --      4.2350                 2.6674                 2.4203
 Frc consts  --      2.7396                 1.8302                 1.8504
 IR Inten    --     16.6182                24.3077                56.2491

                     46                     47                     48
                      A                      A                      A
 Frequencies --   1149.8726              1154.6963              1165.9802
 Red. masses --      1.7809                 2.0167                 2.6494
 Frc consts  --      1.3874                 1.5842                 2.1221
 IR Inten    --     13.5342                 8.5633                12.8156

                     49                     50                     51
                      A                      A                      A
 Frequencies --   1180.9333              1198.8436              1230.6515
 Red. masses --      1.7262                12.6626                 2.8001
 Frc consts  --      1.4184                10.7226                 2.4986
 IR Inten    --      0.6172               285.3532               471.6640

                     52                     53                     54
                      A                      A                      A
 Frequencies --   1236.5865              1276.3184              1288.7470
 Red. masses --      2.9069                 2.2818                 1.4220
 Frc consts  --      2.6190                 2.1900                 1.3915
 IR Inten    --     74.4939                56.9290                98.0684

                     55                     56                     57
                      A                      A                      A
 Frequencies --   1293.4879              1332.8260              1346.4720
 Red. masses --      1.6334                 1.1741                 1.3866
 Frc consts  --      1.6102                 1.2289                 1.4811
 IR Inten    --     53.2516                38.1471                 8.3542

                     58                     59                     60
                      A                      A                      A
 Frequencies --   1350.4562              1383.1046              1423.9747
 Red. masses --      2.2120                 5.5933                 1.5176
 Frc consts  --      2.3769                 6.3042                 1.8131
 IR Inten    --     12.0312               506.9728                 0.7847

                     61                     62                     63
                      A                      A                      A
 Frequencies --   1431.6800              1470.0391              1509.3712
 Red. masses --      1.3018                 2.7384                 1.0624
 Frc consts  --      1.5722                 3.4866                 1.4260
 IR Inten    --      2.9912                10.8382                 8.2167

                     64                     65                     66
                      A                      A                      A
 Frequencies --   1517.2600              1522.2507              1523.9241
 Red. masses --      4.1941                 1.0415                 1.0739
 Frc consts  --      5.6887                 1.4220                 1.4693
 IR Inten    --    181.5426                12.6749                 2.3808

                     67                     68                     69
                      A                      A                      A
 Frequencies --   1537.1782              1549.5061              1594.1401
 Red. masses --      1.1351                 1.7421                 2.1809
 Frc consts  --      1.5803                 2.4644                 3.2654
 IR Inten    --      9.5430               347.1301               819.7581

                     70                     71                     72
                      A                      A                      A
 Frequencies --   1669.5061              1687.5552              1820.5697
 Red. masses --      5.3518                 6.4820                 8.5854
 Frc consts  --      8.7887                10.8762                16.7658
 IR Inten    --     37.8326                68.6748               274.5534

                     73                     74                     75
                      A                      A                      A
 Frequencies --   3052.8515              3055.8002              3072.0247
 Red. masses --      1.0640                 1.0726                 1.0369
 Frc consts  --      5.8424                 5.9009                 5.7653
 IR Inten    --     15.7170                33.2718                28.5207

                     76                     77                     78
                      A                      A                      A
 Frequencies --   3099.4117              3134.5095              3143.5420
 Red. masses --      1.0956                 1.0974                 1.1020
 Frc consts  --      6.2008                 6.3529                 6.4160
 IR Inten    --     13.1348                 0.8174                45.6603

                     79                     80                     81
                      A                      A                      A
 Frequencies --   3149.0233              3214.7210              3252.3540
 Red. masses --      1.1022                 1.0914                 1.0930
 Frc consts  --      6.4394                 6.6455                 6.8121
 IR Inten    --     25.6566                 2.8844                 2.8743

                     82                     83                     84
                      A                      A                      A
 Frequencies --   3291.8371              3635.7318              3654.4562
 Red. masses --      1.0921                 1.0772                 1.0768
 Frc consts  --      6.9727                 8.3891                 8.4728
 IR Inten    --     17.9956                20.4888                30.7337

 - Thermochemistry -
 -------------------
 Temperature   298.150 Kelvin.  Pressure   1.00000 Atm.
 Atom     1 has atomic number  6 and mass  12.00000

 Molecular mass:   280.05903 amu.
 Principal axes and moments of inertia in atomic units:
                           1         2         3
     Eigenvalues --  3110.94811********************
           X            0.99985  -0.01716   0.00057
           Y            0.01717   0.99985  -0.00088
           Z           -0.00055   0.00089   1.00000
 This molecule is an asymmetric top.
 Rotational symmetry number  1.
 Warning -- assumption of classical behavior for rotation
           may cause significant error
 Rotational temperatures (Kelvin)      0.02784     0.00695     0.00570
 Rotational constants (GHZ):           0.58013     0.14490     0.11867
 Zero-point vibrational energy     595426.8 (Joules/Mol)
                                  142.31043 (Kcal/Mol)
 Warning -- explicit consideration of  27 degrees of freedom as
           vibrations may cause significant error
 Vibrational temperatures:      7.52    24.06    30.96    76.42    84.40
          (Kelvin)            105.14   162.99   182.48   206.35   260.62
                              277.78   328.82   340.46   345.90   356.90
                              465.66   477.18   480.42   507.09   540.79
                              619.93   675.48   682.71   724.92   746.07
                              836.41   865.17   936.57   938.40  1023.31
                             1037.93  1085.51  1113.84  1145.84  1242.43
                             1278.15  1280.76  1297.61  1331.11  1337.07
                             1394.68  1458.31  1507.59  1552.65  1638.93
                             1654.41  1661.35  1677.59  1699.10  1724.87
                             1770.63  1779.17  1836.34  1854.22  1861.04
                             1917.64  1937.27  1943.01  1989.98  2048.78
                             2059.87  2115.06  2171.65  2183.00  2190.18
                             2192.59  2211.66  2229.39  2293.61  2402.05
                             2428.02  2619.39  4392.37  4396.61  4419.96
                             4459.36  4509.86  4522.86  4530.74  4625.27
                             4679.41  4736.22  5231.01  5257.95

 Zero-point correction=                           0.226786 (Hartree/Particle)
 Thermal correction to Energy=                    0.244858
 Thermal correction to Enthalpy=                  0.245802
 Thermal correction to Gibbs Free Energy=         0.175168
 Sum of electronic and zero-point Energies=          -1370.572389
 Sum of electronic and thermal Energies=             -1370.554317
 Sum of electronic and thermal Enthalpies=           -1370.553373
 Sum of electronic and thermal Free Energies=        -1370.624007

                     E (Thermal)             CV                S
                      KCal/Mol        Cal/Mol-Kelvin    Cal/Mol-Kelvin
 Total                  153.651             64.453            148.661
 Electronic               0.000              0.000              0.000
 Translational            0.889              2.981             42.788
 Rotational               0.889              2.981             34.732
 Vibrational            151.873             58.492             71.142
 Vibration     1          0.593              1.987              9.300
 Vibration     2          0.593              1.986              6.990
 Vibration     3          0.593              1.985              6.489
 Vibration     4          0.596              1.976              4.698
 Vibration     5          0.596              1.974              4.502
 Vibration     6          0.599              1.967              4.069
 Vibration     7          0.607              1.938              3.212
 Vibration     8          0.611              1.926              2.994
 Vibration     9          0.616              1.910              2.758
 Vibration    10          0.630              1.865              2.317
 Vibration    11          0.635              1.849              2.198
 Vibration    12          0.651              1.797              1.890
 Vibration    13          0.656              1.785              1.828
 Vibration    14          0.657              1.779              1.800
 Vibration    15          0.662              1.766              1.744
 Vibration    16          0.708              1.628              1.292
 Vibration    17          0.714              1.612              1.252
 Vibration    18          0.715              1.608              1.241
 Vibration    19          0.729              1.570              1.155
 Vibration    20          0.747              1.522              1.056
 Vibration    21          0.792              1.403              0.856
 Vibration    22          0.827              1.318              0.739
 Vibration    23          0.831              1.307              0.725
 Vibration    24          0.859              1.241              0.649
 Vibration    25          0.874              1.209              0.613
 Vibration    26          0.938              1.072              0.483
 Vibration    27          0.960              1.029              0.447

 Optimization completed.
    -- Stationary point found.
 Normal termination of Gaussian 16 at Tue Sep 15 14:15:09 2020.
