 Gaussian 09, Revision E.01,

 ----------------------------------------------------------------------
 # M062X/6-311+G* SCF=Tight INT(grid=ultrafine) OPT IOP(2/17=4) Empiric
 alDispersion=GD3 SCRF=(SMD,Solvent=n-Pentadecane) maxdisk=2147483648
 ----------------------------------------------------------------------

 ----------------------------------------
 NM3CA.M062X_6-311pGd_opt_Pentadecane_GD3
 ----------------------------------------
 Symbolic Z-matrix:
 Charge =  0 Multiplicity = 1

 SCF Done:  E(RM062X) =  -1390.68645037     A.U. after   15 cycles
 Optimization completed.
    -- Stationary point found.
 Normal termination of Gaussian 09 at Thu Nov 14 15:46:29 2019.
 Gaussian 09:  ES64L-G09RevE.01 30-Nov-2015

 ----------------------------------------------------------------------
 # M062X/6-311+G* SCF=Tight INT(grid=ultrafine) SCRF=(SMD,Solvent=n-Pen
 tadecane) EmpiricalDispersion=GD3 Freq=Noraman maxdisk=2147483648 geom
 =check guess=read IOP(2/17=4)
 ----------------------------------------------------------------------

 ----------------------------------------
 NM3CA.M062X_6-311pGd_opt_Pentadecane_GD3
 ----------------------------------------
 Structure from the checkpoint file:  "NM3CA.M062X_6-311pGd_opt_Pentadecane_GD3.chk"
 Charge =  0 Multiplicity = 1

                         Standard orientation:
 ---------------------------------------------------------------------
 Center     Atomic      Atomic             Coordinates (Angstroms)
 Number     Number       Type             X           Y           Z
 ---------------------------------------------------------------------
      1          6           0        0.139136    0.708275   -0.001366
      2          7           0       -1.244711    0.902904   -0.001911
      3          6           0       -2.225191   -0.056766   -0.000340
      4          8           0       -2.055209   -1.249764    0.001515
      5          8           0       -3.422977    0.543824   -0.001182
      6          6           0       -4.560317   -0.337598    0.000778
      7          6           0       -5.807808    0.517802   -0.000833
      8          6           0       -7.059347   -0.354205    0.001632
      9          6           0        0.739721   -0.556002   -0.002261
     10          6           0        2.124302   -0.633530   -0.002052
     11          6           0        2.940804    0.492025   -0.000846
     12          6           0        2.319823    1.729962    0.000018
     13          6           0        0.940080    1.853880   -0.000257
     14          1           0       -1.573562    1.858429   -0.002638
     15          1           0       -4.509200   -0.975043    0.886714
     16          1           0       -4.509455   -0.978726   -0.882508
     17          1           0       -5.796944    1.164772   -0.882355
     18          1           0       -5.796388    1.168930    0.877615
     19          1           0       -7.095777   -1.000024   -0.879465
     20          1           0       -7.962437    0.258228    0.000214
     21          1           0       -7.095454   -0.995466    0.886063
     22          1           0        0.136094   -1.450188   -0.003362
     23         17           0        3.294489    3.174197    0.001233
     24          1           0        0.487114    2.839150    0.000355
     25          6           0        2.801565   -1.976100   -0.000182
     26          1           0        4.020678    0.407441   -0.000835
     27          9           0        3.608910   -2.122024   -1.064792
     28          9           0        3.577404   -2.134597    1.086042
     29          9           0        1.937116   -2.994280   -0.018560
 ---------------------------------------------------------------------

 SCF Done:  E(RM062X) =  -1390.68645037     A.U. after    2 cycles

 The electronic state is 1-A.
 Alpha  occ. eigenvalues -- -102.68943 -25.28348 -25.27946 -25.27930 -19.67817
 Alpha  occ. eigenvalues --  -19.61889 -14.80694 -10.80778 -10.71496 -10.62863
 Alpha  occ. eigenvalues --  -10.62556 -10.59870 -10.58904 -10.57588 -10.57277
 Alpha  occ. eigenvalues --  -10.56814 -10.54139 -10.53032  -9.83210  -7.55724
 Alpha  occ. eigenvalues --   -7.55047  -7.55035  -1.47547  -1.38256  -1.37760
 Alpha  occ. eigenvalues --   -1.25949  -1.16010  -1.08386  -1.01732  -0.96373
 Alpha  occ. eigenvalues --   -0.91207  -0.89214  -0.85609  -0.82254  -0.80426
 Alpha  occ. eigenvalues --   -0.74651  -0.74308  -0.70327  -0.69830  -0.68589
 Alpha  occ. eigenvalues --   -0.67678  -0.66933  -0.63982  -0.60381  -0.59755
 Alpha  occ. eigenvalues --   -0.59648  -0.58196  -0.57973  -0.56431  -0.55021
 Alpha  occ. eigenvalues --   -0.54293  -0.53732  -0.53510  -0.51915  -0.51719
 Alpha  occ. eigenvalues --   -0.51363  -0.50020  -0.49819  -0.47518  -0.46727
 Alpha  occ. eigenvalues --   -0.45827  -0.44632  -0.43720  -0.43492  -0.41063
 Alpha  occ. eigenvalues --   -0.40907  -0.39421  -0.39366  -0.38507  -0.37652
 Alpha  occ. eigenvalues --   -0.32696  -0.29757
 Alpha virt. eigenvalues --   -0.01751  -0.00348   0.00289   0.01862   0.02303
 Alpha virt. eigenvalues --    0.02929   0.03332   0.03425   0.03965   0.04805
 Alpha virt. eigenvalues --    0.04897   0.05243   0.05916   0.06588   0.06866

 Mulliken charges:
               1
     1  C   -1.472777
     2  N   -0.488162
     3  C    0.039261
     4  O   -0.309488
     5  O   -0.063388
     6  C   -0.335962
     7  C   -0.145310
     8  C   -1.045870
     9  C   -0.049125
    10  C   -0.790577
    11  C    0.707436
    12  C    0.118876
    13  C   -0.349108
    14  H    0.432951
    15  H    0.275648
    16  H    0.275666
    17  H    0.262960
    18  H    0.262950
    19  H    0.264746
    20  H    0.278496
    21  H    0.264764
    22  H    0.334468
    23  Cl   0.416229
    24  H    0.280473
    25  C    0.780623
    26  H    0.315013
    27  F   -0.064652
    28  F   -0.062957
    29  F   -0.133181
 Sum of Mulliken charges =  -0.00000

 Dipole moment (field-independent basis, Debye):
    X=             -4.8182    Y=              3.6269    Z=             -0.0075  Tot=              6.0307
 Quadrupole moment (field-independent basis, Debye-Ang):
   XX=            -99.4512   YY=           -116.4515   ZZ=           -113.4339
   XY=             -0.3139   XZ=             -0.0111   YZ=              0.0149

  Exact polarizability: 229.852  15.574 184.342   0.011   0.014 106.264
 Approx polarizability: 213.133  10.447 205.512   0.019   0.025 126.247

                      1                      2                      3
                      A                      A                      A
 Frequencies --      4.9505                10.8504                24.9835
 Red. masses --      3.2323                 7.3258                 5.0639
 Frc consts  --      0.0000                 0.0005                 0.0019
 IR Inten    --      1.2192                 0.1964                 0.0419

                      4                      5                      6
                      A                      A                      A
 Frequencies --     54.2251                72.4527                82.2583
 Red. masses --      5.4540                 3.1755                 4.0065
 Frc consts  --      0.0094                 0.0098                 0.0160
 IR Inten    --      0.0838                 1.8624                 2.4671

                      7                      8                      9
                      A                      A                      A
 Frequencies --    115.9503               122.1092               159.5464
 Red. masses --      7.6101                 8.0223                 9.3924
 Frc consts  --      0.0603                 0.0705                 0.1409
 IR Inten    --      0.6755                 0.2073                 2.6029

                     10                     11                     12
                      A                      A                      A
 Frequencies --    171.0469               194.9750               228.1511
 Red. masses --      3.1833                 5.4097                 7.5776
 Frc consts  --      0.0549                 0.1212                 0.2324
 IR Inten    --      3.4708                 0.1774                 0.3315

                     13                     14                     15
                      A                      A                      A
 Frequencies --    239.0872               248.8860               254.2172
 Red. masses --      1.2147                 3.6989                 5.2422
 Frc consts  --      0.0409                 0.1350                 0.1996
 IR Inten    --      0.2030                 1.0109                 1.7898

                     16                     17                     18
                      A                      A                      A
 Frequencies --    331.5570               337.0337               344.1876
 Red. masses --     14.3690                 7.5140                 7.8598
 Frc consts  --      0.9307                 0.5029                 0.5486
 IR Inten    --      1.6066                 0.0567                 5.3732

                     19                     20                     21
                      A                      A                      A
 Frequencies --    360.2876               446.6613               450.8506
 Red. masses --      5.5026                 6.4630                 6.3973
 Frc consts  --      0.4208                 0.7597                 0.7661
 IR Inten    --     29.4890                 1.1375                 6.7736

                     22                     23                     24
                      A                      A                      A
 Frequencies --    482.7487               515.4018               572.0273
 Red. masses --      6.5585                 9.8853                 2.4196
 Frc consts  --      0.9005                 1.5472                 0.4665
 IR Inten    --      3.4231                 0.5871                25.5995

                     25                     26                     27
                      A                      A                      A
 Frequencies --    588.1405               601.3664               653.6385
 Red. masses --      1.5728                10.4884                 4.2332
 Frc consts  --      0.3205                 2.2348                 1.0656
 IR Inten    --     69.0418                 0.8576                 7.4769

                     28                     29                     30
                      A                      A                      A
 Frequencies --    659.9434               712.8660               715.6550
 Red. masses --      6.6973                 2.5714                12.5332
 Frc consts  --      1.7186                 0.7699                 3.7820
 IR Inten    --     15.5103                20.5297                50.0079

                     31                     32                     33
                      A                      A                      A
 Frequencies --    764.9319               791.2023               795.4531
 Red. masses --      1.1175                 8.1188                 8.9571
 Frc consts  --      0.3853                 2.9944                 3.3392
 IR Inten    --      7.5194                20.8639                 1.4086

                     34                     35                     36
                      A                      A                      A
 Frequencies --    855.3744               886.3905               899.6259
 Red. masses --     11.6319                 1.5850                 1.4475
 Frc consts  --      5.0144                 0.7337                 0.6902
 IR Inten    --     55.7918                56.9106                 3.5163

                     37                     38                     39
                      A                      A                      A
 Frequencies --    906.9452               930.8495               938.7388
 Red. masses --      1.1541                 1.7828                 1.3891
 Frc consts  --      0.5593                 0.9102                 0.7212
 IR Inten    --      2.7692                 2.6788                25.3765

                     40                     41                     42
                      A                      A                      A
 Frequencies --    969.7898              1013.7752              1027.2431
 Red. masses --      4.9301                 5.9966                 7.1877
 Frc consts  --      2.7319                 3.6311                 4.4687
 IR Inten    --    130.5722                 7.4581                33.6677

                     43                     44                     45
                      A                      A                      A
 Frequencies --   1077.5382              1133.2535              1142.7813
 Red. masses --      2.4898                 6.5005                 1.8621
 Frc consts  --      1.7033                 4.9187                 1.4328
 IR Inten    --     15.1125                51.3442                48.7305

                     46                     47                     48
                      A                      A                      A
 Frequencies --   1156.3643              1170.3070              1176.3259
 Red. masses --      1.6187                 2.4310                12.7916
 Frc consts  --      1.2753                 1.9617                10.4287
 IR Inten    --     20.7489                 3.9316               333.8494

                     49                     50                     51
                      A                      A                      A
 Frequencies --   1194.5901              1219.2153              1261.3222
 Red. masses --      1.6640                 7.6768                 2.3264
 Frc consts  --      1.3991                 6.7234                 2.1807
 IR Inten    --      1.0547               339.2949               467.5938

                     52                     53                     54
                      A                      A                      A
 Frequencies --   1279.5051              1294.1123              1310.5962
 Red. masses --      3.6816                 1.1822                 1.7494
 Frc consts  --      3.5512                 1.1665                 1.7704
 IR Inten    --    617.5974                 1.0456               223.2674

                     55                     56                     57
                      A                      A                      A
 Frequencies --   1340.4306              1345.6462              1350.8381
 Red. masses --      1.0657                 1.9839                 1.8154
 Frc consts  --      1.1281                 2.1165                 1.9518
 IR Inten    --      1.0547                62.1390                78.2936

                     58                     59                     60
                      A                      A                      A
 Frequencies --   1378.4835              1431.8544              1446.7776
 Red. masses --      4.6344                 1.2787                 1.4984
 Frc consts  --      5.1886                 1.5446                 1.8479
 IR Inten    --    288.2833                 6.7725                25.4415

                     61                     62                     63
                      A                      A                      A
 Frequencies --   1488.7886              1501.9724              1515.6558
 Red. masses --      3.5699                 1.0654                 3.8934
 Frc consts  --      4.6620                 1.4161                 5.2696
 IR Inten    --    202.4673                 0.5171               309.0194

                     64                     65                     66
                      A                      A                      A
 Frequencies --   1518.7596              1520.3455              1534.3626
 Red. masses --      1.0367                 1.0949                 1.1019
 Frc consts  --      1.4089                 1.4911                 1.5284
 IR Inten    --     11.9360                 9.0260                15.9454

                     67                     68                     69
                      A                      A                      A
 Frequencies --   1603.6807              1669.7660              1686.5663
 Red. masses --      2.1194                 5.6512                 6.2484
 Frc consts  --      3.2114                 9.2832                10.4720
 IR Inten    --    505.8740               305.4021                36.5074

                     70                     71                     72
                      A                      A                      A
 Frequencies --   1838.4771              3070.8137              3079.6325
 Red. masses --     10.2940                 1.0379                 1.0600
 Frc consts  --     20.4998                 5.7667                 5.9230
 IR Inten    --    389.9823                21.6944                11.7841

                     73                     74                     75
                      A                      A                      A
 Frequencies --   3093.4281              3113.3656              3135.7236
 Red. masses --      1.0574                 1.1043                 1.1055
 Frc consts  --      5.9616                 6.3066                 6.4045
 IR Inten    --     35.6091                 0.2282                 6.1158

                     76                     77                     78
                      A                      A                      A
 Frequencies --   3150.0587              3150.2623              3218.8415
 Red. masses --      1.1082                 1.1017                 1.0928
 Frc consts  --      6.4789                 6.4420                 6.6709
 IR Inten    --     63.0403                29.1438                 1.3143

                     79                     80                     81
                      A                      A                      A
 Frequencies --   3243.8950              3295.9678              3649.5951
 Red. masses --      1.0932                 1.0915                 1.0772
 Frc consts  --      6.7778                 6.9865                 8.4537
 IR Inten    --      2.9991                23.9287                74.7541

 - Thermochemistry -
 -------------------
 Temperature   298.150 Kelvin.  Pressure   1.00000 Atm.
 Atom     1 has atomic number  6 and mass  12.00000

 Molecular mass:   281.04304 amu.
 Principal axes and moments of inertia in atomic units:
                           1         2         3
     Eigenvalues --  3401.53052********************
           X            0.99997   0.00757  -0.00002
           Y           -0.00757   0.99997  -0.00001
           Z            0.00002   0.00001   1.00000
 This molecule is an asymmetric top.
 Rotational symmetry number  1.
 Warning -- assumption of classical behavior for rotation
           may cause significant error
 Rotational temperatures (Kelvin)      0.02546     0.00759     0.00599
 Rotational constants (GHZ):           0.53057     0.15811     0.12474
 Zero-point vibrational energy     564196.4 (Joules/Mol)
                                  134.84618 (Kcal/Mol)
 Warning -- explicit consideration of  26 degrees of freedom as
           vibrations may cause significant error
 Vibrational temperatures:      7.12    15.61    35.95    78.02   104.24
          (Kelvin)            118.35   166.83   175.69   229.55   246.10
                              280.53   328.26   343.99   358.09   365.76
                              477.04   484.92   495.21   518.37   642.65
                              648.67   694.57   741.55   823.02   846.20
                              865.23   940.44   949.51  1025.65  1029.67
                             1100.57  1138.36  1144.48  1230.69  1275.32
                             1294.36  1304.89  1339.28  1350.63  1395.31
                             1458.59  1477.97  1550.34  1630.50  1644.21
                             1663.75  1683.81  1692.47  1718.75  1754.18
                             1814.76  1840.92  1861.94  1885.65  1928.58
                             1936.08  1943.55  1983.33  2060.12  2081.59
                             2142.03  2161.00  2180.69  2185.15  2187.44
                             2207.60  2307.34  2402.42  2426.59  2645.16
                             4418.21  4430.90  4450.75  4479.43  4511.60
                             4532.23  4532.52  4631.19  4667.24  4742.16
                             5250.95

 Zero-point correction=                           0.214891 (Hartree/Particle)
 Thermal correction to Energy=                    0.232447
 Thermal correction to Enthalpy=                  0.233391
 Thermal correction to Gibbs Free Energy=         0.163558
 Sum of electronic and zero-point Energies=          -1390.471559
 Sum of electronic and thermal Energies=             -1390.454004
 Sum of electronic and thermal Enthalpies=           -1390.453060
 Sum of electronic and thermal Free Energies=        -1390.522892

                     E (Thermal)             CV                S
                      KCal/Mol        Cal/Mol-Kelvin    Cal/Mol-Kelvin
 Total                  145.862             62.508            146.975
 Electronic               0.000              0.000              0.000
 Translational            0.889              2.981             42.798
 Rotational               0.889              2.981             34.684
 Vibrational            144.085             56.546             69.493
 Vibration     1          0.593              1.987              9.408
 Vibration     2          0.593              1.987              7.849
 Vibration     3          0.593              1.985              6.193
 Vibration     4          0.596              1.976              4.657
 Vibration     5          0.599              1.967              4.086
 Vibration     6          0.600              1.961              3.836
 Vibration     7          0.608              1.936              3.167
 Vibration     8          0.610              1.931              3.067
 Vibration     9          0.621              1.892              2.555
 Vibration    10          0.626              1.878              2.424
 Vibration    11          0.636              1.847              2.180
 Vibration    12          0.651              1.798              1.893
 Vibration    13          0.657              1.781              1.810
 Vibration    14          0.662              1.765              1.738
 Vibration    15          0.665              1.756              1.701
 Vibration    16          0.714              1.612              1.252
 Vibration    17          0.718              1.602              1.226
 Vibration    18          0.723              1.587              1.193
 Vibration    19          0.735              1.554              1.121
 Vibration    20          0.806              1.368              0.806
 Vibration    21          0.810              1.359              0.793
 Vibration    22          0.839              1.288              0.703
 Vibration    23          0.870              1.216              0.621
 Vibration    24          0.928              1.092              0.500
 Vibration    25          0.945              1.057              0.471
 Vibration    26          0.960              1.029              0.447

 Normal termination of Gaussian 09 at Thu Nov 14 16:49:54 2019.
