 Gaussian 16, Revision C.01,

 ----------------------------------------------------------------------
 # M062X/6-311+G* SCF=Tight INT(grid=ultrafine) OPT(ReCalcFC=5) IOP(2/1
 7=4) Symmetry=None EmpiricalDispersion=GD3 SCRF=(SMD,Solvent=n-Pentade
 cane)
 ----------------------------------------------------------------------

 -------------------------------------------
 NM3CA_c2.M062X_6-311pGd_opt_Pentadecane_GD3
 -------------------------------------------
 Symbolic Z-matrix:
 Charge =  0 Multiplicity = 1

 SCF Done:  E(RM062X) =  -1390.68635991     A.U. after   15 cycles
 SCF Done:  E(RM062X) =  -1390.68678589     A.U. after   16 cycles
 SCF Done:  E(RM062X) =  -1390.68648189     A.U. after   14 cycles
 SCF Done:  E(RM062X) =  -1390.68683352     A.U. after   13 cycles
 SCF Done:  E(RM062X) =  -1390.68684012     A.U. after   11 cycles
 SCF Done:  E(RM062X) =  -1390.68684090     A.U. after   11 cycles
 SCF Done:  E(RM062X) =  -1390.68684165     A.U. after   11 cycles
 SCF Done:  E(RM062X) =  -1390.68684166     A.U. after   10 cycles
 SCF Done:  E(RM062X) =  -1390.68684166     A.U. after    8 cycles
 Optimization completed on the basis of negligible forces.
    -- Stationary point found.
 Normal termination of Gaussian 16 at Sat Sep  5 00:47:59 2020.
 Gaussian 16:  ES64L-G16RevC.01  3-Jul-2019

 ----------------------------------------------------------------------
 # M062X/6-311+G* SCF=Tight INT(grid=ultrafine) EmpiricalDispersion=GD3
  Symmetry=None SCRF=(SMD,Solvent=n-Pentadecane) Freq=Noraman geom=chec
 k guess=read IOP(2/17=4)
 ----------------------------------------------------------------------

 -------------------------------------------
 NM3CA_c2.M062X_6-311pGd_opt_Pentadecane_GD3
 -------------------------------------------
 Structure from the checkpoint file:  "NM3CA_c2.M062X_6-311pGd_opt_Pentadecane_GD3.chk"
 Charge =  0 Multiplicity = 1

                          Input orientation:
 ---------------------------------------------------------------------
 Center     Atomic      Atomic             Coordinates (Angstroms)
 Number     Number       Type             X           Y           Z
 ---------------------------------------------------------------------
      1          6           0       -5.932674    1.486355    0.224810
      2          7           0       -4.682265    0.873013    0.111646
      3          6           0       -3.449843    1.475313    0.128876
      4          8           0       -3.234312    2.654553    0.253925
      5          8           0       -2.504805    0.537443   -0.017291
      6          6           0       -1.147196    1.013524   -0.022266
      7          6           0       -0.240522   -0.185018   -0.195730
      8          6           0        1.223675    0.241984   -0.212095
      9          6           0       -7.057458    0.656548    0.148158
     10          6           0       -8.323287    1.203268    0.260919
     11          6           0       -8.517603    2.568623    0.444699
     12          6           0       -7.389102    3.367971    0.514672
     13          6           0       -6.100157    2.860683    0.410436
     14          1           0       -4.673000   -0.130863   -0.004189
     15          1           0       -0.953426    1.533717    0.918862
     16          1           0       -1.029060    1.730815   -0.838047
     17          1           0       -0.497856   -0.695923   -1.127695
     18          1           0       -0.421590   -0.890836    0.619619
     19          1           0        1.426711    0.934241   -1.033255
     20          1           0        1.880625   -0.620311   -0.336558
     21          1           0        1.503463    0.739712    0.719929
     22          1           0       -6.934327   -0.411394    0.006244
     23         17           0       -7.586264    5.083928    0.748723
     24          1           0       -5.247192    3.518822    0.473722
     25          6           0       -9.530557    0.319789    0.125141
     26          1           0       -9.510240    2.991635    0.534359
     27          9           0      -10.507007    0.672263    0.972836
     28          9           0      -10.054868    0.384824   -1.111138
     29          9           0       -9.248704   -0.969578    0.357027
 ---------------------------------------------------------------------

 SCF Done:  E(RM062X) =  -1390.68684166     A.U. after    2 cycles

 Alpha  occ. eigenvalues -- -102.68476 -25.28741 -25.28494 -25.28197 -19.67796
 Alpha  occ. eigenvalues --  -19.61895 -14.80669 -10.81186 -10.71486 -10.62603
 Alpha  occ. eigenvalues --  -10.62514 -10.59862 -10.59125 -10.57551 -10.57244
 Alpha  occ. eigenvalues --  -10.56806 -10.54111 -10.53008  -9.82745  -7.55257
 Alpha  occ. eigenvalues --   -7.54583  -7.54568  -1.47938  -1.38651  -1.38165
 Alpha  occ. eigenvalues --   -1.25944  -1.16007  -1.08358  -1.01536  -0.96326
 Alpha  occ. eigenvalues --   -0.91126  -0.89143  -0.85801  -0.82295  -0.80450
 Alpha  occ. eigenvalues --   -0.75225  -0.73358  -0.70554  -0.70232  -0.69678
 Alpha  occ. eigenvalues --   -0.68320  -0.65328  -0.64684  -0.60299  -0.59743
 Alpha  occ. eigenvalues --   -0.59687  -0.58559  -0.58200  -0.56556  -0.55117
 Alpha  occ. eigenvalues --   -0.54333  -0.54048  -0.53657  -0.52197  -0.51845
 Alpha  occ. eigenvalues --   -0.51394  -0.49965  -0.49804  -0.47416  -0.46792
 Alpha  occ. eigenvalues --   -0.45807  -0.44614  -0.43699  -0.43443  -0.41036
 Alpha  occ. eigenvalues --   -0.40914  -0.39216  -0.38902  -0.38529  -0.37664
 Alpha  occ. eigenvalues --   -0.32592  -0.29719
 Alpha virt. eigenvalues --   -0.01577  -0.00542   0.00329   0.01962   0.02231
 Alpha virt. eigenvalues --    0.02993   0.03329   0.03525   0.04183   0.04727
 Alpha virt. eigenvalues --    0.05127   0.05274   0.05547   0.06506   0.06783

 Mulliken charges:
               1
     1  C   -0.734341
     2  N   -0.493955
     3  C    0.069910
     4  O   -0.306326
     5  O   -0.066430
     6  C   -0.342564
     7  C   -0.138447
     8  C   -1.046220
     9  C   -0.512287
    10  C   -1.187958
    11  C    0.170696
    12  C    0.767905
    13  C   -0.314452
    14  H    0.433720
    15  H    0.275107
    16  H    0.275352
    17  H    0.263018
    18  H    0.263020
    19  H    0.264714
    20  H    0.278454
    21  H    0.264564
    22  H    0.282313
    23  Cl   0.424060
    24  H    0.334027
    25  C    0.726260
    26  H    0.318939
    27  F   -0.087615
    28  F   -0.054320
    29  F   -0.127144
 Sum of Mulliken charges =  -0.00000

 Dipole moment (field-independent basis, Debye):
    X=              4.2181    Y=             -2.8560    Z=             -0.3612  Tot=              5.1068
 Quadrupole moment (field-independent basis, Debye-Ang):
   XX=           -154.6381   YY=           -123.4534   ZZ=           -113.5083
   XY=             12.1364   XZ=              0.9040   YZ=             -1.0777

  Exact polarizability:     223.870     -11.238     188.870      -5.215      11.218     108.256
 Approx polarizability:     206.636      -4.993     211.065      -3.316      10.968     127.932

                      1                      2                      3
                      A                      A                      A
 Frequencies --      9.6724                29.7083                37.0485
 Red. masses --     17.5186                 5.3109                 4.4600
 Frc consts  --      0.0010                 0.0028                 0.0036
 IR Inten    --      0.0588                 0.1127                 4.1514

                      4                      5                      6
                      A                      A                      A
 Frequencies --     56.5493                80.3798                86.7250
 Red. masses --      5.4714                 5.2284                 1.8524
 Frc consts  --      0.0103                 0.0199                 0.0082
 IR Inten    --      0.0784                 0.0162                 3.0197

                      7                      8                      9
                      A                      A                      A
 Frequencies --    116.8482               130.3607               148.3872
 Red. masses --      7.3046                 9.0764                 8.0855
 Frc consts  --      0.0588                 0.0909                 0.1049
 IR Inten    --      0.4451                 2.6978                 0.9810

                     10                     11                     12
                      A                      A                      A
 Frequencies --    173.2399               196.4897               229.6830
 Red. masses --      3.1242                 5.3179                 7.7950
 Frc consts  --      0.0552                 0.1210                 0.2423
 IR Inten    --      3.4576                 0.4212                 0.9838

                     13                     14                     15
                      A                      A                      A
 Frequencies --    237.5552               251.3169               252.7437
 Red. masses --      1.1569                 5.2963                 4.3864
 Frc consts  --      0.0385                 0.1971                 0.1651
 IR Inten    --      0.1302                 0.8786                 1.1832

                     16                     17                     18
                      A                      A                      A
 Frequencies --    325.5818               334.3046               348.3011
 Red. masses --     12.0020                 7.0791                 6.0195
 Frc consts  --      0.7496                 0.4661                 0.4302
 IR Inten    --      0.0731                 0.5388                 7.9767

                     19                     20                     21
                      A                      A                      A
 Frequencies --    373.5453               432.1024               468.2082
 Red. masses --      6.9464                 8.2412                 5.8463
 Frc consts  --      0.5711                 0.9066                 0.7551
 IR Inten    --     28.4565                 4.8403                 1.3013

                     22                     23                     24
                      A                      A                      A
 Frequencies --    476.2281               515.6456               550.6502
 Red. masses --      6.3286                 9.0243                 1.1611
 Frc consts  --      0.8456                 1.4137                 0.2074
 IR Inten    --      0.9587                 7.9372                87.1558

                     25                     26                     27
                      A                      A                      A
 Frequencies --    581.9514               600.6362               652.1583
 Red. masses --      5.0255                10.4663                 5.1587
 Frc consts  --      1.0028                 2.2247                 1.2927
 IR Inten    --      0.8236                 0.3333                 2.5314

                     28                     29                     30
                      A                      A                      A
 Frequencies --    655.4867               709.8765               720.3142
 Red. masses --      6.6564                 2.3066                12.2374
 Frc consts  --      1.6851                 0.6848                 3.7410
 IR Inten    --     16.1015                31.1265                47.2715

                     31                     32                     33
                      A                      A                      A
 Frequencies --    769.0053               790.5011               791.5771
 Red. masses --      1.1299                 8.9019                 7.4701
 Frc consts  --      0.3937                 3.2775                 2.7578
 IR Inten    --      8.4216                19.4534                19.9371

                     34                     35                     36
                      A                      A                      A
 Frequencies --    861.4355               888.0790               898.5415
 Red. masses --     11.8549                 1.5278                 1.5968
 Frc consts  --      5.1831                 0.7099                 0.7596
 IR Inten    --     42.3469                37.2023                34.2168

                     37                     38                     39
                      A                      A                      A
 Frequencies --    907.7659               925.9509               928.4116
 Red. masses --      1.1509                 1.3853                 1.7679
 Frc consts  --      0.5588                 0.6998                 0.8978
 IR Inten    --      2.9417                 7.4160                 1.9518

                     40                     41                     42
                      A                      A                      A
 Frequencies --    969.4272              1013.6336              1028.1058
 Red. masses --      4.8990                 6.0236                 7.2080
 Frc consts  --      2.7126                 3.6464                 4.4889
 IR Inten    --    126.3137                 2.7475                37.9183

                     43                     44                     45
                      A                      A                      A
 Frequencies --   1077.2314              1127.8786              1150.0980
 Red. masses --      2.4970                 4.5367                 1.9157
 Frc consts  --      1.7072                 3.4003                 1.4930
 IR Inten    --     17.8047                16.2773                36.3317

                     46                     47                     48
                      A                      A                      A
 Frequencies --   1154.3505              1170.8258              1180.4592
 Red. masses --      1.8952                 2.4342                12.4746
 Frc consts  --      1.4879                 1.9660                10.2419
 IR Inten    --     78.6680                13.5553               338.4607

                     49                     50                     51
                      A                      A                      A
 Frequencies --   1196.2028              1216.0277              1260.0019
 Red. masses --      1.6549                 6.9936                 2.2084
 Frc consts  --      1.3952                 6.0931                 2.0657
 IR Inten    --      1.0690               403.7602               344.6978

                     52                     53                     54
                      A                      A                      A
 Frequencies --   1282.4930              1293.7524              1303.6167
 Red. masses --      2.9854                 1.1855                 2.0307
 Frc consts  --      2.8931                 1.1691                 2.0333
 IR Inten    --    518.9513                 1.1691               411.9356

                     55                     56                     57
                      A                      A                      A
 Frequencies --   1339.6631              1348.6508              1351.0712
 Red. masses --      1.0695                 1.5198                 2.2773
 Frc consts  --      1.1309                 1.6287                 2.4492
 IR Inten    --      1.3394                27.0510                17.2696

                     58                     59                     60
                      A                      A                      A
 Frequencies --   1383.7260              1431.7148              1444.3337
 Red. masses --      5.5096                 1.2795                 1.4999
 Frc consts  --      6.2155                 1.5453                 1.8435
 IR Inten    --    465.1787                 5.5406                17.7970

                     61                     62                     63
                      A                      A                      A
 Frequencies --   1482.2663              1504.4393              1517.9106
 Red. masses --      3.1850                 1.0624                 1.0375
 Frc consts  --      4.1230                 1.4167                 1.4084
 IR Inten    --     40.0443                 1.4298                11.7489

                     64                     65                     66
                      A                      A                      A
 Frequencies --   1519.4165              1521.9548              1536.2186
 Red. masses --      3.6592                 1.1262                 1.1049
 Frc consts  --      4.9773                 1.5370                 1.5363
 IR Inten    --    144.1251                12.8390                25.6665

                     67                     68                     69
                      A                      A                      A
 Frequencies --   1597.7295              1668.4986              1690.0792
 Red. masses --      2.2151                 5.2622                 6.4997
 Frc consts  --      3.3316                 8.6312                10.9385
 IR Inten    --    920.9944                43.8745                89.7278

                     70                     71                     72
                      A                      A                      A
 Frequencies --   1836.8141              3070.3071              3079.4504
 Red. masses --     10.3900                 1.0378                 1.0600
 Frc consts  --     20.6536                 5.7642                 5.9227
 IR Inten    --    380.8680                22.0132                11.1825

                     73                     74                     75
                      A                      A                      A
 Frequencies --   3092.7571              3112.8129              3134.9676
 Red. masses --      1.0574                 1.1043                 1.1056
 Frc consts  --      5.9589                 6.3043                 6.4017
 IR Inten    --     35.2859                 0.1748                 6.1268

                     76                     77                     78
                      A                      A                      A
 Frequencies --   3149.2309              3149.5396              3223.1790
 Red. masses --      1.1073                 1.1026                 1.0920
 Frc consts  --      6.4703                 6.4440                 6.6843
 IR Inten    --     59.6776                34.2391                 2.0056

                     79                     80                     81
                      A                      A                      A
 Frequencies --   3246.3017              3283.5791              3646.0504
 Red. masses --      1.0936                 1.0927                 1.0770
 Frc consts  --      6.7900                 6.9413                 8.4358
 IR Inten    --      4.8182                18.7496                78.2493

 - Thermochemistry -
 -------------------
 Temperature   298.150 Kelvin.  Pressure   1.00000 Atm.
 Atom     1 has atomic number  6 and mass  12.00000

 Molecular mass:   281.04304 amu.
 Principal axes and moments of inertia in atomic units:
                           1         2         3
     Eigenvalues --  3135.80581********************
           X            0.99564   0.08899   0.02790
           Y           -0.08421   0.98641  -0.14110
           Z           -0.04007   0.13814   0.98960
 This molecule is an asymmetric top.
 Rotational symmetry number  1.
 Warning -- assumption of classical behavior for rotation
           may cause significant error
 Rotational temperatures (Kelvin)      0.02762     0.00710     0.00578
 Rotational constants (GHZ):           0.57553     0.14798     0.12045
 Zero-point vibrational energy     564217.1 (Joules/Mol)
                                  134.85112 (Kcal/Mol)
 Warning -- explicit consideration of  26 degrees of freedom as
           vibrations may cause significant error
 Vibrational temperatures:     13.92    42.74    53.30    81.36   115.65
          (Kelvin)            124.78   168.12   187.56   213.50   249.25
                              282.70   330.46   341.79   361.59   363.64
                              468.44   480.99   501.13   537.45   621.70
                              673.65   685.19   741.90   792.26   837.30
                              864.18   938.31   943.10  1021.35  1036.37
                             1106.43  1137.35  1138.90  1239.41  1277.75
                             1292.80  1306.07  1332.24  1335.78  1394.79
                             1458.39  1479.21  1549.90  1622.77  1654.73
                             1660.85  1684.56  1698.42  1721.07  1749.59
                             1812.86  1845.22  1861.42  1875.61  1927.48
                             1940.41  1943.89  1990.87  2059.92  2078.07
                             2132.65  2164.55  2183.93  2186.10  2189.75
                             2210.28  2298.78  2400.60  2431.65  2642.77
                             4417.49  4430.64  4449.79  4478.64  4510.52
                             4531.04  4531.49  4637.44  4670.70  4724.34
                             5245.85

 Zero-point correction=                           0.214899 (Hartree/Particle)
 Thermal correction to Energy=                    0.232357
 Thermal correction to Enthalpy=                  0.233301
 Thermal correction to Gibbs Free Energy=         0.165601
 Sum of electronic and zero-point Energies=          -1390.471943
 Sum of electronic and thermal Energies=             -1390.454485
 Sum of electronic and thermal Enthalpies=           -1390.453541
 Sum of electronic and thermal Free Energies=        -1390.521241

                     E (Thermal)             CV                S
                      KCal/Mol        Cal/Mol-Kelvin    Cal/Mol-Kelvin
 Total                  145.806             62.558            142.487
 Electronic               0.000              0.000              0.000
 Translational            0.889              2.981             42.798
 Rotational               0.889              2.981             34.704
 Vibrational            144.029             56.596             64.985
 Vibration     1          0.593              1.987              8.077
 Vibration     2          0.593              1.984              5.849
 Vibration     3          0.594              1.982              5.411
 Vibration     4          0.596              1.975              4.574
 Vibration     5          0.600              1.962              3.882
 Vibration     6          0.601              1.958              3.733
 Vibration     7          0.608              1.935              3.152
 Vibration     8          0.612              1.923              2.941
 Vibration     9          0.618              1.904              2.693
 Vibration    10          0.627              1.875              2.400
 Vibration    11          0.636              1.845              2.166
 Vibration    12          0.652              1.796              1.881
 Vibration    13          0.656              1.783              1.821
 Vibration    14          0.663              1.761              1.721
 Vibration    15          0.664              1.758              1.711
 Vibration    16          0.710              1.624              1.282
 Vibration    17          0.716              1.607              1.239
 Vibration    18          0.726              1.579              1.174
 Vibration    19          0.745              1.526              1.065
 Vibration    20          0.793              1.400              0.852
 Vibration    21          0.825              1.321              0.743
 Vibration    22          0.833              1.303              0.720
 Vibration    23          0.871              1.215              0.620
 Vibration    24          0.906              1.138              0.543
 Vibration    25          0.939              1.070              0.482
 Vibration    26          0.959              1.030              0.449

 Optimization completed on the basis of negligible forces.
    -- Stationary point found.
 Normal termination of Gaussian 16 at Sat Sep  5 04:15:12 2020.
