 Gaussian 16, Revision C.01,
 Gaussian 16:  ES64L-G16RevC.01  3-Jul-2019

 ---------------------------------------------------------------------
 # DSDPBEP86/AUG-cc-PVTZ SCF=Tight INT(grid=ultrafine) MaxDisk=60000MB
 ---------------------------------------------------------------------

 ------------------------------
 NM3CA_c2.DSDPBEP86_AUG-cc-PVTZ
 ------------------------------
 Symbolic Z-matrix:
 Charge =  0 Multiplicity = 1

                         Standard orientation:
 ---------------------------------------------------------------------
 Center     Atomic      Atomic             Coordinates (Angstroms)
 Number     Number       Type             X           Y           Z
 ---------------------------------------------------------------------
      1          6           0        0.108098   -0.031467   -0.011090
      2          7           0       -1.202464   -0.520666   -0.008753
      3          6           0       -2.367263    0.206203   -0.001318
      4          8           0       -2.461043    1.405724    0.006077
      5          8           0       -3.407464   -0.642793   -0.003547
      6          6           0       -4.705593   -0.028014    0.003232
      7          6           0       -5.737464   -1.135010    0.000638
      8          6           0       -7.151982   -0.561823    0.007584
      9          6           0        1.140807   -0.973953   -0.031177
     10          6           0        2.459110   -0.551210   -0.039409
     11          6           0        2.790806    0.798109   -0.025620
     12          6           0        1.750354    1.713979   -0.005445
     13          6           0        0.415446    1.331604    0.002358
     14          1           0       -1.321603   -1.522880   -0.016078
     15          1           0       -4.796063    0.613444   -0.876732
     16          1           0       -4.791033    0.604591    0.890071
     17          1           0       -5.579394   -1.770915    0.875897
     18          1           0       -5.584492   -1.762141   -0.881827
     19          1           0       -7.326656    0.053404    0.893549
     20          1           0       -7.896838   -1.358469    0.005849
     21          1           0       -7.331832    0.062077   -0.871255
     22          1           0        0.912809   -2.034040   -0.048594
     23         17           0        2.127205    3.412173    0.005853
     24          1           0       -0.367102    2.074970    0.015180
     25          6           0        3.558579   -1.575528    0.000756
     26          1           0        3.821751    1.126633   -0.038010
     27          9           0        4.660841   -1.151610   -0.628760
     28          9           0        3.916631   -1.862384    1.262925
     29          9           0        3.188961   -2.731534   -0.568562
 ---------------------------------------------------------------------

 SCF Done:  E(RDSDPBEP86) =  -1387.62353242     A.U. after   13 cycles
 E2(DSDPBEP86) =    -0.1704536621D+01 E(DSDPBEP86) =    -0.13893280690406D+04

 The electronic state is 1-A.
 Alpha  occ. eigenvalues -- -103.57884 -25.71799 -25.71690 -25.71289 -20.06569
 Alpha  occ. eigenvalues --  -19.99923 -15.14404 -11.09335 -11.00227 -10.90773
 Alpha  occ. eigenvalues --  -10.90739 -10.88514 -10.87072 -10.85536 -10.85133
 Alpha  occ. eigenvalues --  -10.84638 -10.82860 -10.81880 -10.15383  -7.73062
 Alpha  occ. eigenvalues --   -7.72589  -7.72573  -1.58254  -1.48984  -1.48508
 Alpha  occ. eigenvalues --   -1.35760  -1.25492  -1.17265  -1.09701  -1.03926
 Alpha  occ. eigenvalues --   -0.98758  -0.96608  -0.92810  -0.88234  -0.87123
 Alpha  occ. eigenvalues --   -0.80842  -0.78768  -0.75702  -0.74358  -0.74213
 Alpha  occ. eigenvalues --   -0.74121  -0.70258  -0.69269  -0.64556  -0.64234
 Alpha  occ. eigenvalues --   -0.64008  -0.62953  -0.62434  -0.60780  -0.59254
 Alpha  occ. eigenvalues --   -0.58317  -0.58045  -0.57858  -0.56455  -0.55730
 Alpha  occ. eigenvalues --   -0.55226  -0.53480  -0.53176  -0.50610  -0.50553
 Alpha  occ. eigenvalues --   -0.49655  -0.47997  -0.47567  -0.46148  -0.44807
 Alpha  occ. eigenvalues --   -0.44476  -0.42024  -0.41421  -0.41369  -0.41028
 Alpha  occ. eigenvalues --   -0.33389  -0.30707
 Alpha virt. eigenvalues --    0.01026   0.01713   0.02569   0.02634   0.02685
 Alpha virt. eigenvalues --    0.03174   0.03652   0.03724   0.04632   0.04986
 Alpha virt. eigenvalues --    0.05290   0.05311   0.05928   0.06524   0.06670

 Mulliken charges:
               1
     1  C    0.677921
     2  N   -0.069875
     3  C    0.366422
     4  O   -0.772268
     5  O   -0.438810
     6  C   -0.204836
     7  C   -0.474900
     8  C   -0.965590
     9  C   -0.918427
    10  C    0.740320
    11  C   -0.875685
    12  C    0.609532
    13  C   -0.784191
    14  H    0.000925
    15  H    0.332444
    16  H    0.331304
    17  H    0.212360
    18  H    0.212299
    19  H    0.279211
    20  H    0.287650
    21  H    0.279156
    22  H    0.347639
    23  Cl  -0.424113
    24  H    0.681783
    25  C    1.274940
    26  H    0.469608
    27  F   -0.393690
    28  F   -0.388638
    29  F   -0.392489
 Sum of Mulliken charges =  -0.00000

 Dipole moment (field-independent basis, Debye):
    X=             -4.0238    Y=             -2.1744    Z=             -0.1001  Tot=              4.5748
 Quadrupole moment (field-independent basis, Debye-Ang):
   XX=           -103.0127   YY=           -116.3915   ZZ=           -112.2840
   XY=              9.1876   XZ=             -0.3106   YZ=              0.1431

 Normal termination of Gaussian 16 at Thu Sep 10 15:04:17 2020.
