 Gaussian 09, Revision E.01,
 Gaussian 09:  ES64L-G09RevE.01 30-Nov-2015

 -------------------------------------------------------------
 # MP2/Gen 6D SCF=Tight INT(grid=ultrafine) maxdisk=3489660928
 -------------------------------------------------------------

 --------------------
 NM3CA_c2.MP2_6-31pGd
 --------------------
 Symbolic Z-matrix:
 Charge =  0 Multiplicity = 1

                         Standard orientation:
 ---------------------------------------------------------------------
 Center     Atomic      Atomic             Coordinates (Angstroms)
 Number     Number       Type             X           Y           Z
 ---------------------------------------------------------------------
      1          6           0        0.108098   -0.031467   -0.011090
      2          7           0       -1.202464   -0.520666   -0.008753
      3          6           0       -2.367263    0.206203   -0.001318
      4          8           0       -2.461043    1.405724    0.006077
      5          8           0       -3.407464   -0.642793   -0.003547
      6          6           0       -4.705593   -0.028014    0.003232
      7          6           0       -5.737464   -1.135010    0.000638
      8          6           0       -7.151982   -0.561823    0.007584
      9          6           0        1.140807   -0.973953   -0.031177
     10          6           0        2.459110   -0.551210   -0.039409
     11          6           0        2.790806    0.798109   -0.025620
     12          6           0        1.750354    1.713979   -0.005445
     13          6           0        0.415446    1.331604    0.002358
     14          1           0       -1.321603   -1.522880   -0.016078
     15          1           0       -4.796063    0.613444   -0.876732
     16          1           0       -4.791033    0.604591    0.890071
     17          1           0       -5.579394   -1.770915    0.875897
     18          1           0       -5.584492   -1.762141   -0.881827
     19          1           0       -7.326656    0.053404    0.893549
     20          1           0       -7.896838   -1.358469    0.005849
     21          1           0       -7.331832    0.062077   -0.871255
     22          1           0        0.912809   -2.034040   -0.048594
     23         17           0        2.127205    3.412173    0.005853
     24          1           0       -0.367102    2.074970    0.015180
     25          6           0        3.558579   -1.575528    0.000756
     26          1           0        3.821751    1.126633   -0.038010
     27          9           0        4.660841   -1.151610   -0.628760
     28          9           0        3.916631   -1.862384    1.262925
     29          9           0        3.188961   -2.731534   -0.568562
 ---------------------------------------------------------------------

 SCF Done:  E(RHF) =  -1385.00491446     A.U. after   18 cycles
 E2 =    -0.2589691570D+01 EUMP2 =    -0.13875946060326D+04

 The electronic state is 1-A.
 Alpha  occ. eigenvalues -- -104.84018 -26.36187 -26.36072 -26.35624 -20.63213
 Alpha  occ. eigenvalues --  -20.56829 -15.63667 -11.52767 -11.43646 -11.32851
 Alpha  occ. eigenvalues --  -11.32786 -11.30310 -11.29130 -11.27585 -11.27186
 Alpha  occ. eigenvalues --  -11.26580 -11.24270 -11.23379 -10.57262  -8.04204
 Alpha  occ. eigenvalues --   -8.03861  -8.03861  -1.74316  -1.64742  -1.64210
 Alpha  occ. eigenvalues --   -1.49549  -1.38766  -1.29273  -1.21110  -1.14688
 Alpha  occ. eigenvalues --   -1.09217  -1.07034  -1.02810  -0.98135  -0.96433
 Alpha  occ. eigenvalues --   -0.89733  -0.87454  -0.84110  -0.83081  -0.82648
 Alpha  occ. eigenvalues --   -0.82491  -0.78493  -0.76857  -0.72429  -0.72031
 Alpha  occ. eigenvalues --   -0.71601  -0.71155  -0.70919  -0.68243  -0.66898
 Alpha  occ. eigenvalues --   -0.66802  -0.65547  -0.65404  -0.64431  -0.62318
 Alpha  occ. eigenvalues --   -0.61580  -0.60339  -0.59099  -0.56975  -0.56069
 Alpha  occ. eigenvalues --   -0.55917  -0.53908  -0.53059  -0.51490  -0.50385
 Alpha  occ. eigenvalues --   -0.49911  -0.47914  -0.47611  -0.46527  -0.46199
 Alpha  occ. eigenvalues --   -0.36577  -0.33679
 Alpha virt. eigenvalues --    0.05534   0.07407   0.07675   0.08021   0.08739
 Alpha virt. eigenvalues --    0.08938   0.08990   0.09401   0.10045   0.10704
 Alpha virt. eigenvalues --    0.10790   0.11224   0.12168   0.12337   0.12856

 Mulliken charges:
               1
     1  C   -0.138018
     2  N   -0.924066
     3  C    0.725379
     4  O   -0.583799
     5  O   -0.487747
     6  C    0.031131
     7  C   -0.271219
     8  C   -0.691517
     9  C   -0.086718
    10  C   -1.417231
    11  C   -0.264098
    12  C    0.194688
    13  C    0.140260
    14  H    0.500185
    15  H    0.211731
    16  H    0.212033
    17  H    0.204500
    18  H    0.204452
    19  H    0.196516
    20  H    0.204429
    21  H    0.196501
    22  H    0.261960
    23  Cl   0.263423
    24  H    0.331698
    25  C    1.861204
    26  H    0.290671
    27  F   -0.395224
    28  F   -0.362642
    29  F   -0.408482
 Sum of Mulliken charges =  -0.00000

 Dipole moment (field-independent basis, Debye):
    X=             -4.1224    Y=             -2.2524    Z=             -0.1013  Tot=              4.6987
 Quadrupole moment (field-independent basis, Debye-Ang):
   XX=           -104.1258   YY=           -118.2264   ZZ=           -113.7582
   XY=              9.3309   XZ=             -0.3137   YZ=              0.1440

 Normal termination of Gaussian 09 at Mon Dec  9 11:37:26 2019.
