 Q-Chem 5.0, Q-Chem, Inc., Pleasanton, CA (2017)
 Q-Chem 5.0.0 for Intel X86 EM64T Linux

User input:
--------------------------------------------------------------
$molecule
  0 1
    C     -5.9569774964    1.2808417127    0.1937244090
    N     -4.6761929711    0.7260852958    0.0985238423
    C     -3.4748896310    1.3918660304    0.0953564042
    O     -3.3167048070    2.5816439440    0.1746987992
    O     -2.4823408900    0.4936316170   -0.0120889921
    C     -1.1550188492    1.0427360656   -0.0291191185
    C     -0.1822498634   -0.1096510956   -0.1542905514
    C      1.2582901817    0.3941613221   -0.1794147609
    C     -6.1911356013    2.6563764353    0.3032149879
    C     -7.5013566318    3.1012571369    0.3917171321
    C     -8.5902154275    2.2364418165    0.3760305323
    C     -8.3311323620    0.8805160896    0.2668747265
    C     -7.0364086201    0.3944376030    0.1760640258
    H     -4.6101653127   -0.2781777893    0.0231473521
    H     -0.9966891587    1.6094817615    0.8915708232
    H     -1.0720482802    1.7370607438   -0.8687424746
    H     -0.4069771034   -0.6678688794   -1.0671748851
    H     -0.3320125571   -0.7948630579    0.6844723461
    H      1.4288381861    1.0668524163   -1.0234183192
    H      1.9612084214   -0.4348237634   -0.2696742313
    H      1.5041420102    0.9392380926    0.7351283058
    H     -5.3676618908    3.3533986819    0.3181827469
    Cl    -9.6563259272   -0.2458709955    0.2424448047
    H     -6.8718000484   -0.6741181456    0.0917469319
    C     -7.7898146971    4.5737769392    0.5106327161
    H     -9.6060191900    2.6050963661    0.4463538508
    F     -8.5558526462    5.0040904724   -0.5047879246
    F     -8.4629288302    4.8491360989    1.6394182432
    F     -6.6812700068    5.3174170852    0.5163582777

$end

$rem

    JOBTYPE               sp
    METHOD                CCSD(T)
    BASIS                 6-31+G*
    CC_BACKEND            XM

    MEM_TOTAL             60000
$end
--------------------------------------------------------------

             Standard Nuclear Orientation (Angstroms)
    I     Atom           X                Y                Z
 ----------------------------------------------------------------
    1      C       0.1416686412    -0.7115918106     0.0002233817
    2      N      -1.2436778879    -0.9066348835     0.0003790098
    3      C      -2.2234346559     0.0559036111     0.0001418210
    4      O      -2.0554787796     1.2469871290     0.0000199875
    5      O      -3.4231924295    -0.5475065799     0.0000785527
    6      C      -4.5559872313     0.3358763561    -0.0001361392
    7      C      -5.8051525496    -0.5182486611     0.0000023958
    8      C      -7.0593956865     0.3515144618    -0.0002488999
    9      C       0.7382505843     0.5545061173     0.0002113946
   10      C       2.1223940334     0.6356079694     0.0000742553
   11      C       2.9400423656    -0.4892103606    -0.0000445386
   12      C       2.3246925670    -1.7297417896    -0.0000191099
   13      C       0.9444023851    -1.8547515589     0.0001133203
   14      H      -1.5779842301    -1.8589084146     0.0003277537
   15      H      -4.5024700436     0.9767218096    -0.8835341010
   16      H      -4.5025306177     0.9770810710     0.8830043695
   17      H      -5.7920409997    -1.1682695104     0.8790747569
   18      H      -5.7919695020    -1.1686749407    -0.8787691092
   19      H      -7.0962168586     0.9951785303     0.8819544240
   20      H      -7.9610379267    -0.2620801388    -0.0000686626
   21      H      -7.0962192224     0.9946679928    -0.8828237641
   22      H       0.1314682977     1.4466878510     0.0003041786
   23      Cl      3.2999070812    -3.1700331845    -0.0001646290
   24      H       0.4976455696    -2.8428938005     0.0001260168
   25      C       2.7975089354     1.9809270392    -0.0000223101
   26      H       4.0195544017    -0.4034048579    -0.0001429556
   27      F       3.5873821679     2.1301216539     1.0755725009
   28      F       3.5864868819     2.1304176076    -1.0762325308
   29      F       1.9281930956     2.9939396375     0.0004523598
 ----------------------------------------------------------------

   16   -1385.0044691010      3.84E-09 Convergence criterion met
 Total energy in the final basis set = -1385.0044691010
 CCSD total energy           = -1387.67105355
 CCSD(T) total energy       = -1387.77025954

                    Orbital Energies (a.u.)
 --------------------------------------------------------------

 Alpha MOs
 -- Occupied --
******* -26.356 -26.352 -26.352 -20.632 -20.568 -15.637 -11.521
-11.436 -11.331 -11.329 -11.303 -11.288 -11.276 -11.272 -11.266
-11.243 -11.234 -10.579  -8.048  -8.045  -8.045  -1.737  -1.641
 -1.636  -1.495  -1.387  -1.293  -1.213  -1.147  -1.093  -1.071
 -1.026  -0.979  -0.964  -0.889  -0.886  -0.835  -0.826  -0.824
 -0.804  -0.802  -0.763  -0.722  -0.716  -0.712  -0.711  -0.709
 -0.680  -0.667  -0.663  -0.652  -0.648  -0.644  -0.623  -0.616
 -0.602  -0.591  -0.568  -0.562  -0.559  -0.540  -0.531  -0.516
 -0.504  -0.499  -0.479  -0.476  -0.471  -0.463  -0.368  -0.336

          Ground-State Mulliken Net Atomic Charges

     Atom                 Charge (a.u.)
  ----------------------------------------
      1 C                    -0.257442
      2 N                    -0.931089
      3 C                     0.745853
      4 O                    -0.584979
      5 O                    -0.480574
      6 C                     0.072085
      7 C                    -0.278545
      8 C                    -0.689532
      9 C                     0.291897
     10 C                    -0.781010
     11 C                    -0.067409
     12 C                    -0.099297
     13 C                    -0.728275
     14 H                     0.501105
     15 H                     0.212436
     16 H                     0.212444
     17 H                     0.204242
     18 H                     0.204241
     19 H                     0.196633
     20 H                     0.204277
     21 H                     0.196637
     22 H                     0.345204
     23 Cl                    0.268631
     24 H                     0.255220
     25 C                     1.871023
     26 H                     0.287213
     27 F                    -0.369897
     28 F                    -0.369878
     29 F                    -0.431215
  ----------------------------------------
  Sum of atomic charges =    -0.000000

                    Cartesian Multipole Moments
 -----------------------------------------------------------------
    Charge (ESU x 10^10)
                -0.0000
    Dipole Moment (Debye)
         X      -4.4907      Y      -3.2182      Z       0.0001
       Tot       5.5247
    Quadrupole Moments (Debye-Ang)
        XX    -100.8943     XY       0.7102     YY    -117.7424
        XZ       0.0007     YZ       0.0004     ZZ    -113.7760

 Total job time:  106519.67s(wall), 347448.56s(cpu)
        *  Thank you very much for using Q-Chem.  Have a nice day.  *
