 Gaussian 09, Revision E.01,

 ----------------------------------------------------------------------
 # M062X/6-311+G* SCF=Tight INT(grid=ultrafine) OPT IOP(2/17=4) Empiric
 alDispersion=GD3 maxdisk=2147483648
 ----------------------------------------------------------------------

 ----------------------------
 NM3CA.M062X_6-311pGd_opt_GD3
 ----------------------------
 Symbolic Z-matrix:
 Charge =  0 Multiplicity = 1

 SCF Done:  E(RM062X) =  -1390.67453961     A.U. after   16 cycles
 Optimization completed.
    -- Stationary point found.
 Normal termination of Gaussian 09 at Thu Nov 14 15:57:38 2019.
 Gaussian 09:  ES64L-G09RevE.01 30-Nov-2015

 ----------------------------------------------------------------------
 # M062X/6-311+G* SCF=Tight INT(grid=ultrafine) EmpiricalDispersion=GD3
  Freq=Noraman maxdisk=2147483648 geom=check guess=read IOP(2/17=4)
 ----------------------------------------------------------------------

 ----------------------------
 NM3CA.M062X_6-311pGd_opt_GD3
 ----------------------------
 Structure from the checkpoint file:  "NM3CA.M062X_6-311pGd_opt_GD3.chk"
 Charge =  0 Multiplicity = 1

                         Standard orientation:
 ---------------------------------------------------------------------
 Center     Atomic      Atomic             Coordinates (Angstroms)
 Number     Number       Type             X           Y           Z
 ---------------------------------------------------------------------
      1          6           0        0.141669    0.711592   -0.000223
      2          7           0       -1.243678    0.906635   -0.000379
      3          6           0       -2.223435   -0.055904   -0.000142
      4          8           0       -2.055479   -1.246987   -0.000020
      5          8           0       -3.423192    0.547507   -0.000079
      6          6           0       -4.555987   -0.335876    0.000136
      7          6           0       -5.805153    0.518249   -0.000002
      8          6           0       -7.059396   -0.351514    0.000249
      9          6           0        0.738251   -0.554506   -0.000211
     10          6           0        2.122394   -0.635608   -0.000074
     11          6           0        2.940042    0.489210    0.000045
     12          6           0        2.324693    1.729742    0.000019
     13          6           0        0.944402    1.854752   -0.000113
     14          1           0       -1.577984    1.858908   -0.000328
     15          1           0       -4.502470   -0.976722    0.883534
     16          1           0       -4.502531   -0.977081   -0.883004
     17          1           0       -5.792041    1.168270   -0.879075
     18          1           0       -5.791970    1.168675    0.878769
     19          1           0       -7.096217   -0.995179   -0.881954
     20          1           0       -7.961038    0.262080    0.000069
     21          1           0       -7.096219   -0.994668    0.882824
     22          1           0        0.131468   -1.446688   -0.000304
     23         17           0        3.299907    3.170033    0.000165
     24          1           0        0.497646    2.842894   -0.000126
     25          6           0        2.797509   -1.980927    0.000022
     26          1           0        4.019554    0.403405    0.000143
     27          9           0        3.587382   -2.130122   -1.075573
     28          9           0        3.586487   -2.130418    1.076233
     29          9           0        1.928193   -2.993940   -0.000452
 ---------------------------------------------------------------------

 SCF Done:  E(RM062X) =  -1390.67453961     A.U. after    2 cycles

 The electronic state is 1-A.
 Alpha  occ. eigenvalues -- -102.69153 -25.28147 -25.27722 -25.27721 -19.68477
 Alpha  occ. eigenvalues --  -19.62420 -14.81426 -10.80648 -10.72041 -10.63219
 Alpha  occ. eigenvalues --  -10.63038 -10.60787 -10.59165 -10.58125 -10.57650
 Alpha  occ. eigenvalues --  -10.57143 -10.55176 -10.54124  -9.83421  -7.55937
 Alpha  occ. eigenvalues --   -7.55254  -7.55244  -1.47375  -1.38089  -1.37582
 Alpha  occ. eigenvalues --   -1.26565  -1.16651  -1.09024  -1.02105  -0.96659
 Alpha  occ. eigenvalues --   -0.91875  -0.89796  -0.85980  -0.82364  -0.81174
 Alpha  occ. eigenvalues --   -0.74963  -0.74754  -0.70430  -0.69634  -0.69428
 Alpha  occ. eigenvalues --   -0.68142  -0.67452  -0.64473  -0.60845  -0.60495
 Alpha  occ. eigenvalues --   -0.60142  -0.58175  -0.57738  -0.56684  -0.55469
 Alpha  occ. eigenvalues --   -0.55076  -0.53635  -0.53575  -0.52308  -0.51921
 Alpha  occ. eigenvalues --   -0.51484  -0.50576  -0.50094  -0.48236  -0.47349
 Alpha  occ. eigenvalues --   -0.46454  -0.44960  -0.44688  -0.43963  -0.42062
 Alpha  occ. eigenvalues --   -0.41832  -0.39776  -0.39568  -0.39229  -0.38158
 Alpha  occ. eigenvalues --   -0.33012  -0.30219
 Alpha virt. eigenvalues --   -0.02090  -0.00692  -0.00441   0.01207   0.01985
 Alpha virt. eigenvalues --    0.02618   0.02805   0.03298   0.03367   0.04546
 Alpha virt. eigenvalues --    0.04586   0.05152   0.05585   0.06406   0.06499

 Mulliken charges:
               1
     1  C   -1.477445
     2  N   -0.478464
     3  C    0.018844
     4  O   -0.287069
     5  O   -0.060424
     6  C   -0.330667
     7  C   -0.139311
     8  C   -1.027199
     9  C   -0.037541
    10  C   -0.808494
    11  C    0.741449
    12  C    0.118263
    13  C   -0.348395
    14  H    0.405921
    15  H    0.269316
    16  H    0.269319
    17  H    0.258823
    18  H    0.258820
    19  H    0.260003
    20  H    0.274313
    21  H    0.260009
    22  H    0.334961
    23  Cl   0.430001
    24  H    0.258972
    25  C    0.771685
    26  H    0.299192
    27  F   -0.054273
    28  F   -0.054238
    29  F   -0.126370
 Sum of Mulliken charges =  -0.00000

 Dipole moment (field-independent basis, Debye):
    X=             -4.3899    Y=              3.2115    Z=             -0.0001  Tot=              5.4392
 Quadrupole moment (field-independent basis, Debye-Ang):
   XX=            -99.6517   YY=           -116.0246   ZZ=           -113.3344
   XY=             -0.0523   XZ=             -0.0006   YZ=              0.0004

  Exact polarizability: 209.677  14.287 162.857   0.003   0.000  95.725
 Approx polarizability: 212.357  10.432 205.704   0.006   0.001 125.973

                      1                      2                      3
                      A                      A                      A
 Frequencies --     13.5943                23.4931                26.6706
 Red. masses --     18.0233                 2.9268                 5.2808
 Frc consts  --      0.0020                 0.0010                 0.0022
 IR Inten    --      0.0297                 1.6706                 0.0079

                      4                      5                      6
                      A                      A                      A
 Frequencies --     55.1994                74.1189                77.0568
 Red. masses --      5.5858                 2.3449                 5.0822
 Frc consts  --      0.0100                 0.0076                 0.0178
 IR Inten    --      0.0592                 3.3755                 0.0905

                      7                      8                      9
                      A                      A                      A
 Frequencies --    117.2865               121.2731               158.7962
 Red. masses --      7.8703                 7.9318                 9.1148
 Frc consts  --      0.0638                 0.0687                 0.1354
 IR Inten    --      0.5192                 0.1902                 2.2202

                     10                     11                     12
                      A                      A                      A
 Frequencies --    170.4923               195.7245               227.5501
 Red. masses --      3.2046                 5.4514                 7.5679
 Frc consts  --      0.0549                 0.1230                 0.2309
 IR Inten    --      2.5339                 0.1948                 0.2691

                     13                     14                     15
                      A                      A                      A
 Frequencies --    236.6233               247.8367               253.0334
 Red. masses --      1.1637                 4.1117                 5.2782
 Frc consts  --      0.0384                 0.1488                 0.1991
 IR Inten    --      0.0913                 0.8119                 1.6706

                     16                     17                     18
                      A                      A                      A
 Frequencies --    331.6336               336.1452               343.7472
 Red. masses --     13.9912                 7.5111                 7.8466
 Frc consts  --      0.9066                 0.5000                 0.5463
 IR Inten    --      1.3978                 0.0061                 4.1107

                     19                     20                     21
                      A                      A                      A
 Frequencies --    359.0899               446.1807               450.4699
 Red. masses --      5.4605                 5.4338                 7.9056
 Frc consts  --      0.4148                 0.6373                 0.9452
 IR Inten    --     24.4137                 0.1403                 5.7034

                     22                     23                     24
                      A                      A                      A
 Frequencies --    481.7165               515.2138               550.8342
 Red. masses --      6.4296                 7.8070                 1.2107
 Frc consts  --      0.8791                 1.2210                 0.2164
 IR Inten    --      2.8104                 0.1008                71.0813

                     25                     26                     27
                      A                      A                      A
 Frequencies --    578.3709               601.6583               654.7153
 Red. masses --      5.1474                10.5649                 4.2165
 Frc consts  --      1.0145                 2.2533                 1.0649
 IR Inten    --      6.1282                 0.8142                 5.7620

                     28                     29                     30
                      A                      A                      A
 Frequencies --    658.8084               714.8622               718.0895
 Red. masses --      6.5363                 2.6005                12.5963
 Frc consts  --      1.6715                 0.7830                 3.8269
 IR Inten    --     12.7418                15.5802                40.9774

                     31                     32                     33
                      A                      A                      A
 Frequencies --    765.2053               790.4118               793.1706
 Red. masses --      1.1261                 7.6686                 8.9623
 Frc consts  --      0.3885                 2.8227                 3.3220
 IR Inten    --      5.5103                17.6753                 0.9758

                     34                     35                     36
                      A                      A                      A
 Frequencies --    858.8392               883.2866               895.7353
 Red. masses --     11.5578                 1.6025                 1.4334
 Frc consts  --      5.0228                 0.7367                 0.6776
 IR Inten    --     44.6065                46.2000                 0.0169

                     37                     38                     39
                      A                      A                      A
 Frequencies --    905.6578               929.3023               943.8111
 Red. masses --      1.1539                 1.7779                 1.3817
 Frc consts  --      0.5576                 0.9046                 0.7251
 IR Inten    --      2.1312                 1.6230                21.7310

                     40                     41                     42
                      A                      A                      A
 Frequencies --    970.2520              1014.4040              1028.1716
 Red. masses --      4.9767                 6.0405                 7.1037
 Frc consts  --      2.7603                 3.6622                 4.4245
 IR Inten    --    103.5047                 5.4312                23.4765

                     43                     44                     45
                      A                      A                      A
 Frequencies --   1076.3037              1135.5978              1141.9960
 Red. masses --      2.5311                 6.0383                 1.7728
 Frc consts  --      1.7275                 4.5879                 1.3622
 IR Inten    --     10.9050                41.1811                36.6492

                     46                     47                     48
                      A                      A                      A
 Frequencies --   1156.3859              1169.9211              1196.9315
 Red. masses --      1.6439                 2.4192                 1.6658
 Frc consts  --      1.2952                 1.9509                 1.4061
 IR Inten    --     29.6104                 4.3763                 0.0012

                     49                     50                     51
                      A                      A                      A
 Frequencies --   1198.4776              1236.5804              1256.2373
 Red. masses --     12.6734                 6.9490                 2.4229
 Frc consts  --     10.7252                 6.2606                 2.2528
 IR Inten    --    284.0985               191.4224               610.1782

                     52                     53                     54
                      A                      A                      A
 Frequencies --   1280.3665              1294.3256              1306.0762
 Red. masses --      3.6215                 1.1837                 1.7474
 Frc consts  --      3.4979                 1.1684                 1.7562
 IR Inten    --    439.9646                 0.7283               107.3687

                     55                     56                     57
                      A                      A                      A
 Frequencies --   1339.1033              1345.2554              1349.8727
 Red. masses --      1.0675                 2.0943                 1.7049
 Frc consts  --      1.1279                 2.2331                 1.8304
 IR Inten    --      0.3601                45.9530                31.2774

                     58                     59                     60
                      A                      A                      A
 Frequencies --   1378.9172              1433.7047              1445.2411
 Red. masses --      4.6147                 1.2747                 1.5170
 Frc consts  --      5.1698                 1.5437                 1.8669
 IR Inten    --    275.0876                 4.9644                37.1120

                     61                     62                     63
                      A                      A                      A
 Frequencies --   1487.1866              1510.6046              1516.7200
 Red. masses --      3.5965                 1.0632                 4.0261
 Frc consts  --      4.6866                 1.4294                 5.4569
 IR Inten    --    188.1827                 1.8615               258.9622

                     64                     65                     66
                      A                      A                      A
 Frequencies --   1523.7289              1525.3190              1538.1701
 Red. masses --      1.0364                 1.0849                 1.0982
 Frc consts  --      1.4177                 1.4871                 1.5309
 IR Inten    --     10.5141                 2.7062                17.4271

                     67                     68                     69
                      A                      A                      A
 Frequencies --   1599.6789              1670.7927              1686.8793
 Red. masses --      2.2530                 5.8743                 6.4573
 Frc consts  --      3.3968                 9.6617                10.8260
 IR Inten    --    485.6681               229.4781                49.5020

                     70                     71                     72
                      A                      A                      A
 Frequencies --   1852.5762              3071.4906              3079.3047
 Red. masses --     10.6165                 1.0382                 1.0596
 Frc consts  --     21.4677                 5.7707                 5.9194
 IR Inten    --    303.3736                17.9354                 6.9145

                     73                     74                     75
                      A                      A                      A
 Frequencies --   3091.0141              3112.1940              3134.4155
 Red. masses --      1.0574                 1.1044                 1.1062
 Frc consts  --      5.9526                 6.3025                 6.4030
 IR Inten    --     33.1769                 0.0829                 0.7949

                     76                     77                     78
                      A                      A                      A
 Frequencies --   3148.5084              3152.5749              3217.0789
 Red. masses --      1.1070                 1.1015                 1.0923
 Frc consts  --      6.4654                 6.4498                 6.6607
 IR Inten    --     56.2505                23.7862                 1.9186

                     79                     80                     81
                      A                      A                      A
 Frequencies --   3241.2901              3293.1730              3657.8468
 Red. masses --      1.0931                 1.0915                 1.0772
 Frc consts  --      6.7665                 6.9746                 8.4917
 IR Inten    --      1.7952                20.6966                46.5296

 - Thermochemistry -
 -------------------
 Temperature   298.150 Kelvin.  Pressure   1.00000 Atm.
 Atom     1 has atomic number  6 and mass  12.00000

 Molecular mass:   281.04304 amu.
 Principal axes and moments of inertia in atomic units:
                           1         2         3
     Eigenvalues --  3400.42311********************
           X            0.99997   0.00752  -0.00000
           Y           -0.00752   0.99997  -0.00000
           Z            0.00000   0.00000   1.00000
 This molecule is an asymmetric top.
 Rotational symmetry number  1.
 Warning -- assumption of classical behavior for rotation
           may cause significant error
 Rotational temperatures (Kelvin)      0.02547     0.00759     0.00599
 Rotational constants (GHZ):           0.53074     0.15823     0.12482
 Zero-point vibrational energy     564460.2 (Joules/Mol)
                                  134.90922 (Kcal/Mol)
 Warning -- explicit consideration of  26 degrees of freedom as
           vibrations may cause significant error
 Vibrational temperatures:     19.56    33.80    38.37    79.42   106.64
          (Kelvin)            110.87   168.75   174.48   228.47   245.30
                              281.60   327.39   340.45   356.58   364.06
                              477.15   483.64   494.57   516.65   641.95
                              648.12   693.08   741.28   792.53   832.15
                              865.65   941.99   947.88  1028.53  1033.17
                             1100.96  1137.22  1141.19  1235.68  1270.85
                             1288.76  1303.04  1337.06  1357.93  1395.97
                             1459.50  1479.31  1548.56  1633.87  1643.08
                             1663.78  1683.25  1722.12  1724.34  1779.16
                             1807.44  1842.16  1862.24  1879.15  1926.67
                             1935.52  1942.16  1983.95  2062.78  2079.38
                             2139.73  2173.42  2182.22  2192.30  2194.59
                             2213.08  2301.58  2403.90  2427.04  2665.44
                             4419.18  4430.43  4447.27  4477.75  4509.72
                             4530.00  4535.85  4628.65  4663.49  4738.14
                             5262.82

 Zero-point correction=                           0.214992 (Hartree/Particle)
 Thermal correction to Energy=                    0.232528
 Thermal correction to Enthalpy=                  0.233472
 Thermal correction to Gibbs Free Energy=         0.165312
 Sum of electronic and zero-point Energies=          -1390.459548
 Sum of electronic and thermal Energies=             -1390.442012
 Sum of electronic and thermal Enthalpies=           -1390.441067
 Sum of electronic and thermal Free Energies=        -1390.509228

                     E (Thermal)             CV                S
                      KCal/Mol        Cal/Mol-Kelvin    Cal/Mol-Kelvin
 Total                  145.914             62.560            143.456
 Electronic               0.000              0.000              0.000
 Translational            0.889              2.981             42.798
 Rotational               0.889              2.981             34.682
 Vibrational            144.136             56.599             65.975
 Vibration     1          0.593              1.986              7.401
 Vibration     2          0.593              1.985              6.315
 Vibration     3          0.593              1.984              6.063
 Vibration     4          0.596              1.975              4.622
 Vibration     5          0.599              1.966              4.041
 Vibration     6          0.599              1.964              3.964
 Vibration     7          0.608              1.935              3.145
 Vibration     8          0.609              1.931              3.080
 Vibration     9          0.621              1.893              2.564
 Vibration    10          0.626              1.879              2.430
 Vibration    11          0.636              1.846              2.173
 Vibration    12          0.651              1.799              1.898
 Vibration    13          0.656              1.785              1.828
 Vibration    14          0.661              1.766              1.746
 Vibration    15          0.664              1.758              1.709
 Vibration    16          0.714              1.612              1.252
 Vibration    17          0.717              1.603              1.230
 Vibration    18          0.722              1.588              1.195
 Vibration    19          0.734              1.557              1.126
 Vibration    20          0.805              1.369              0.807
 Vibration    21          0.809              1.360              0.794
 Vibration    22          0.838              1.291              0.705
 Vibration    23          0.870              1.216              0.621
 Vibration    24          0.906              1.138              0.542
 Vibration    25          0.935              1.078              0.488
 Vibration    26          0.960              1.028              0.447

 Optimization completed.
    -- Stationary point found.
 Normal termination of Gaussian 09 at Thu Nov 14 16:59:34 2019.
