 Q-Chem 5.0, Q-Chem, Inc., Pleasanton, CA (2017)
 Q-Chem 5.0.0 for Intel X86 EM64T Linux

User input:
--------------------------------------------------------------
$molecule
  0 1
    C     -5.9363567378    1.4871685131    0.2139658711
    N     -4.6853388909    0.8757892616    0.0795614564
    C     -3.4511677975    1.4756191940    0.1262232574
    O     -3.2317298801    2.6470234401    0.2916282537
    O     -2.5066698127    0.5366687427   -0.0444015202
    C     -1.1517696602    1.0128764794   -0.0197271348
    C     -0.2427370649   -0.1790216373   -0.2276800899
    C      1.2234609946    0.2447063279   -0.2146277537
    C     -7.0615804509    0.6602121180    0.1419496509
    C     -8.3271195545    1.2061155390    0.2727268139
    C     -8.5149941624    2.5682171936    0.4733689354
    C     -7.3848828587    3.3682391418    0.5410166345
    C     -6.0985697763    2.8603143526    0.4158612955
    H     -4.6723450703   -0.1227935437   -0.0665327150
    H     -0.9676104547    1.5013770129    0.9401909800
    H     -1.0269831357    1.7608188425   -0.8064807907
    H     -0.4933609552   -0.6560361718   -1.1790401409
    H     -0.4342034094   -0.9141876367    0.5586463706
    H      1.4351380334    0.9665312717   -1.0071614225
    H      1.8798987690   -0.6132456076   -0.3645154449
    H      1.4945754304    0.7072008053    0.7375011861
    H     -6.9461794053   -0.4076650211   -0.0076883987
    Cl    -7.5807874619    5.0775547305    0.7976637603
    H     -5.2427687981    3.5152890208    0.4771091532
    C     -9.5291495216    0.3144669474    0.1321585646
    H     -9.5047148548    2.9921872255    0.5812145730
    F    -10.5610352639    0.7458733944    0.8670596835
    F     -9.9534568902    0.2592616547   -1.1408199190
    F     -9.2664013594   -0.9454615912    0.5071688903

$end

$rem

    JOBTYPE               sp
    METHOD                CCSD(T)
    BASIS                 6-31+G*
    CC_BACKEND            XM

    MEM_TOTAL             60000
$end
--------------------------------------------------------------

             Standard Nuclear Orientation (Angstroms)
    I     Atom           X                Y                Z
 ----------------------------------------------------------------
    1      C       0.1080983123     0.0314666249     0.0110896697
    2      N      -1.2024638319     0.5206661716     0.0087532116
    3      C      -2.3672630322    -0.2062032114     0.0013180152
    4      O      -2.4610434861    -1.4057240559    -0.0060772626
    5      O      -3.4074641824     0.6427925510     0.0035474738
    6      C      -4.7055927673     0.0280135124    -0.0032324783
    7      C      -5.7374641951     1.1350096437    -0.0006376470
    8      C      -7.1519821556     0.5618227699    -0.0075837925
    9      C       1.1408069003     0.9739532849     0.0311766782
   10      C       2.4591098752     0.5512099457     0.0394089188
   11      C       2.7908058354    -0.7981094014     0.0256199313
   12      C       1.7503544488    -1.7139788063     0.0054448795
   13      C       0.4154457301    -1.3316038265    -0.0023579334
   14      H      -1.3216025074     1.5228798686     0.0160776207
   15      H      -4.7960629791    -0.6134439598     0.8767320798
   16      H      -4.7910327800    -0.6045905405    -0.8900711822
   17      H      -5.5793939796     1.7709150851    -0.8758971649
   18      H      -5.5844924606     1.7621412183     0.8818267130
   19      H      -7.3266563507    -0.0534035236    -0.8935485591
   20      H      -7.8968382045     1.3584687721    -0.0058491578
   21      H      -7.3318316207    -0.0620768144     0.8712547453
   22      H       0.9128090132     2.0340401299     0.0485943673
   23      Cl      2.1272045344    -3.4121727071    -0.0058525002
   24      H      -0.3671016344    -2.0749702517    -0.0151802029
   25      C       3.5585787623     1.5755280618    -0.0007563497
   26      H       3.8217507200    -1.1266325464     0.0380097114
   27      F       4.6608407900     1.1516097220     0.6287601518
   28      F       3.9166309000     1.8623839693    -1.2629254914
   29      F       3.1889613751     2.7315336236     0.5685620075
 ----------------------------------------------------------------

   16   -1385.0049144486      3.29E-09 Convergence criterion met
 Total energy in the final basis set = -1385.0049144486
 CCSD total energy           = -1387.67161655
 CCSD(T) total energy       = -1387.77084341

                    Orbital Energies (a.u.)
 --------------------------------------------------------------

 Alpha MOs
 -- Occupied --
******* -26.362 -26.361 -26.356 -20.632 -20.568 -15.637 -11.528
-11.436 -11.329 -11.328 -11.303 -11.291 -11.276 -11.272 -11.266
-11.243 -11.234 -10.573  -8.042  -8.039  -8.039  -1.743  -1.647
 -1.642  -1.495  -1.388  -1.293  -1.211  -1.147  -1.092  -1.070
 -1.028  -0.981  -0.964  -0.897  -0.875  -0.841  -0.831  -0.826
 -0.825  -0.785  -0.769  -0.724  -0.720  -0.716  -0.712  -0.709
 -0.682  -0.669  -0.668  -0.655  -0.654  -0.644  -0.623  -0.616
 -0.603  -0.591  -0.570  -0.561  -0.559  -0.539  -0.531  -0.515
 -0.504  -0.499  -0.479  -0.476  -0.465  -0.462  -0.366  -0.337

          Ground-State Mulliken Net Atomic Charges

     Atom                 Charge (a.u.)
  ----------------------------------------
      1 C                    -0.138022
      2 N                    -0.924066
      3 C                     0.725378
      4 O                    -0.583799
      5 O                    -0.487747
      6 C                     0.031132
      7 C                    -0.271220
      8 C                    -0.691517
      9 C                    -0.086724
     10 C                    -1.417219
     11 C                    -0.264100
     12 C                     0.194685
     13 C                     0.140267
     14 H                     0.500185
     15 H                     0.211731
     16 H                     0.212033
     17 H                     0.204500
     18 H                     0.204452
     19 H                     0.196516
     20 H                     0.204429
     21 H                     0.196501
     22 H                     0.261960
     23 Cl                    0.263424
     24 H                     0.331698
     25 C                     1.861199
     26 H                     0.290671
     27 F                    -0.395224
     28 F                    -0.362642
     29 F                    -0.408483
  ----------------------------------------
  Sum of atomic charges =     0.000000

                    Cartesian Multipole Moments
 -----------------------------------------------------------------
    Charge (ESU x 10^10)
                -0.0000
    Dipole Moment (Debye)
         X      -4.1224      Y       2.2524      Z       0.1013
       Tot       4.6987
    Quadrupole Moments (Debye-Ang)
        XX    -104.1258     XY      -9.3309     YY    -118.2264
        XZ       0.3137     YZ       0.1440     ZZ    -113.7582

 Total job time:  100507.16s(wall), 346204.06s(cpu)
        *  Thank you very much for using Q-Chem.  Have a nice day.  *
