 Gaussian 09, Revision E.01,

 ----------------------------------------------------------------------
 # M062X/6-311+G* SCF=Tight INT(grid=ultrafine) OPT IOP(2/17=4) Empiric
 alDispersion=GD3 maxdisk=2147483648
 ----------------------------------------------------------------------

 -------------------------------
 NM3CA_c2.M062X_6-311pGd_opt_GD3
 -------------------------------
 Symbolic Z-matrix:
 Charge =  0 Multiplicity = 1

 SCF Done:  E(RM062X) =  -1390.67507457     A.U. after   15 cycles
 Optimization completed.
    -- Stationary point found.
 Normal termination of Gaussian 09 at Thu Nov 14 15:51:11 2019.
 Gaussian 09:  ES64L-G09RevE.01 30-Nov-2015

 ----------------------------------------------------------------------
 # M062X/6-311+G* SCF=Tight INT(grid=ultrafine) EmpiricalDispersion=GD3
  Freq=Noraman maxdisk=2147483648 geom=check guess=read IOP(2/17=4)
 ----------------------------------------------------------------------

 -------------------------------
 NM3CA_c2.M062X_6-311pGd_opt_GD3
 -------------------------------
 Structure from the checkpoint file:  "NM3CA_c2.M062X_6-311pGd_opt_GD3.chk"
 Charge =  0 Multiplicity = 1

                         Standard orientation:
 ---------------------------------------------------------------------
 Center     Atomic      Atomic             Coordinates (Angstroms)
 Number     Number       Type             X           Y           Z
 ---------------------------------------------------------------------
      1          6           0        0.108098   -0.031467   -0.011090
      2          7           0       -1.202464   -0.520666   -0.008753
      3          6           0       -2.367263    0.206203   -0.001318
      4          8           0       -2.461043    1.405724    0.006077
      5          8           0       -3.407464   -0.642793   -0.003547
      6          6           0       -4.705593   -0.028014    0.003232
      7          6           0       -5.737464   -1.135010    0.000638
      8          6           0       -7.151982   -0.561823    0.007584
      9          6           0        1.140807   -0.973953   -0.031177
     10          6           0        2.459110   -0.551210   -0.039409
     11          6           0        2.790806    0.798109   -0.025620
     12          6           0        1.750354    1.713979   -0.005445
     13          6           0        0.415446    1.331604    0.002358
     14          1           0       -1.321603   -1.522880   -0.016078
     15          1           0       -4.796063    0.613444   -0.876732
     16          1           0       -4.791033    0.604591    0.890071
     17          1           0       -5.579394   -1.770915    0.875897
     18          1           0       -5.584492   -1.762141   -0.881827
     19          1           0       -7.326656    0.053404    0.893549
     20          1           0       -7.896838   -1.358469    0.005849
     21          1           0       -7.331832    0.062077   -0.871255
     22          1           0        0.912809   -2.034040   -0.048594
     23         17           0        2.127205    3.412173    0.005853
     24          1           0       -0.367102    2.074970    0.015180
     25          6           0        3.558579   -1.575528    0.000756
     26          1           0        3.821751    1.126633   -0.038010
     27          9           0        4.660841   -1.151610   -0.628760
     28          9           0        3.916631   -1.862384    1.262925
     29          9           0        3.188961   -2.731534   -0.568562
 ---------------------------------------------------------------------

 SCF Done:  E(RM062X) =  -1390.67507457     A.U. after    2 cycles

 The electronic state is 1-A.
 Alpha  occ. eigenvalues -- -102.68591 -25.28664 -25.28557 -25.28131 -19.68501
 Alpha  occ. eigenvalues --  -19.62470 -14.81432 -10.81230 -10.72076 -10.63034
 Alpha  occ. eigenvalues --  -10.62925 -10.60819 -10.59477 -10.58078 -10.57651
 Alpha  occ. eigenvalues --  -10.57206 -10.55188 -10.54141  -9.82861  -7.55376
 Alpha  occ. eigenvalues --   -7.54696  -7.54681  -1.47940  -1.38665  -1.38166
 Alpha  occ. eigenvalues --   -1.26597  -1.16688  -1.09035  -1.01901  -0.96641
 Alpha  occ. eigenvalues --   -0.91852  -0.89726  -0.86232  -0.82458  -0.81277
 Alpha  occ. eigenvalues --   -0.75631  -0.73800  -0.71006  -0.70221  -0.69963
 Alpha  occ. eigenvalues --   -0.69271  -0.65915  -0.65255  -0.60755  -0.60525
 Alpha  occ. eigenvalues --   -0.60215  -0.58641  -0.58198  -0.56881  -0.55627
 Alpha  occ. eigenvalues --   -0.55105  -0.54121  -0.53841  -0.52431  -0.52202
 Alpha  occ. eigenvalues --   -0.51943  -0.50539  -0.50096  -0.48147  -0.47434
 Alpha  occ. eigenvalues --   -0.46526  -0.45005  -0.44724  -0.43900  -0.42079
 Alpha  occ. eigenvalues --   -0.41879  -0.39613  -0.39304  -0.39007  -0.38216
 Alpha  occ. eigenvalues --   -0.32859  -0.30237
 Alpha virt. eigenvalues --   -0.01939  -0.00954  -0.00376   0.01237   0.01985
 Alpha virt. eigenvalues --    0.02693   0.02782   0.03147   0.03853   0.04365
 Alpha virt. eigenvalues --    0.04796   0.05095   0.05348   0.06217   0.06435

 Mulliken charges:
               1
     1  C   -0.649557
     2  N   -0.484296
     3  C    0.058186
     4  O   -0.284298
     5  O   -0.063058
     6  C   -0.339557
     7  C   -0.133835
     8  C   -1.026296
     9  C   -0.365791
    10  C   -1.115060
    11  C   -0.053630
    12  C    0.761745
    13  C   -0.283769
    14  H    0.407032
    15  H    0.268655
    16  H    0.268895
    17  H    0.259172
    18  H    0.259084
    19  H    0.259841
    20  H    0.274474
    21  H    0.259849
    22  H    0.262976
    23  Cl   0.438067
    24  H    0.331588
    25  C    0.633187
    26  H    0.303626
    27  F   -0.091994
    28  F   -0.045851
    29  F   -0.109383
 Sum of Mulliken charges =  -0.00000

 Dipole moment (field-independent basis, Debye):
    X=             -4.1094    Y=             -1.9710    Z=             -0.0950  Tot=              4.5586
 Quadrupole moment (field-independent basis, Debye-Ang):
   XX=           -103.0829   YY=           -116.3211   ZZ=           -113.3191
   XY=              9.3702   XZ=             -0.2923   YZ=              0.1338

  Exact polarizability: 206.121   7.463 166.096  -0.248   0.370  95.898
 Approx polarizability: 206.929   5.794 211.934  -0.541   0.796 126.162

                      1                      2                      3
                      A                      A                      A
 Frequencies --      4.6469                17.4708                27.5848
 Red. masses --      2.5541                16.4152                 4.9351
 Frc consts  --      0.0000                 0.0030                 0.0022
 IR Inten    --      1.3957                 0.0462                 0.1368

                      4                      5                      6
                      A                      A                      A
 Frequencies --     56.0847                68.4338                76.2539
 Red. masses --      5.4827                 2.7215                 5.1540
 Frc consts  --      0.0102                 0.0075                 0.0177
 IR Inten    --      0.0821                 3.6241                 0.6719

                      7                      8                      9
                      A                      A                      A
 Frequencies --    114.9273               130.7552               146.5403
 Red. masses --      7.4591                 8.4205                 8.5063
 Frc consts  --      0.0580                 0.0848                 0.1076
 IR Inten    --      0.4040                 2.2377                 0.6982

                     10                     11                     12
                      A                      A                      A
 Frequencies --    168.9629               194.5249               230.3527
 Red. masses --      3.1674                 5.3307                 1.1628
 Frc consts  --      0.0533                 0.1188                 0.0364
 IR Inten    --      2.6486                 0.2079                 0.0439

                     13                     14                     15
                      A                      A                      A
 Frequencies --    230.4650               249.1675               250.5766
 Red. masses --      7.6014                 5.2269                 4.6315
 Frc consts  --      0.2379                 0.1912                 0.1713
 IR Inten    --      0.6502                 0.6941                 0.7684

                     16                     17                     18
                      A                      A                      A
 Frequencies --    323.9710               333.1771               348.8088
 Red. masses --     11.3274                 7.2361                 5.9979
 Frc consts  --      0.7005                 0.4733                 0.4300
 IR Inten    --      0.0438                 0.3972                 7.4057

                     19                     20                     21
                      A                      A                      A
 Frequencies --    373.5683               430.3378               467.6112
 Red. masses --      6.8753                 8.0780                 6.0051
 Frc consts  --      0.5653                 0.8814                 0.7736
 IR Inten    --     22.4010                 3.6401                 0.9432

                     22                     23                     24
                      A                      A                      A
 Frequencies --    474.3378               516.0181               544.4811
 Red. masses --      6.1647                 7.7065                 1.2044
 Frc consts  --      0.8172                 1.2090                 0.2104
 IR Inten    --      0.7472                 9.1981                63.9061

                     25                     26                     27
                      A                      A                      A
 Frequencies --    583.8047               601.0678               652.9561
 Red. masses --      4.7132                10.5066                 5.3205
 Frc consts  --      0.9464                 2.2364                 1.3365
 IR Inten    --      1.5474                 0.3316                 2.5558

                     28                     29                     30
                      A                      A                      A
 Frequencies --    655.4523               713.6361               722.4392
 Red. masses --      6.5489                 2.2901                12.1256
 Frc consts  --      1.6577                 0.6872                 3.7287
 IR Inten    --     13.0459                25.7056                38.7306

                     31                     32                     33
                      A                      A                      A
 Frequencies --    761.8273               786.9623               790.5036
 Red. masses --      1.1129                 8.8585                 8.2882
 Frc consts  --      0.3806                 3.2324                 3.0515
 IR Inten    --      5.0762                14.1767                18.0628

                     34                     35                     36
                      A                      A                      A
 Frequencies --    863.4414               893.0220               894.9778
 Red. masses --     11.8304                 1.4758                 1.6433
 Frc consts  --      5.1966                 0.6934                 0.7755
 IR Inten    --     34.8855                23.3517                31.7986

                     37                     38                     39
                      A                      A                      A
 Frequencies --    901.9357               927.1044               929.8043
 Red. masses --      1.1544                 1.7611                 1.3823
 Frc consts  --      0.5533                 0.8918                 0.7041
 IR Inten    --      2.1614                 0.9775                 7.3645

                     40                     41                     42
                      A                      A                      A
 Frequencies --    970.1279              1014.1208              1028.2531
 Red. masses --      4.9154                 6.0119                 7.1477
 Frc consts  --      2.7256                 3.6429                 4.4526
 IR Inten    --    100.8488                 2.5171                25.2305

                     43                     44                     45
                      A                      A                      A
 Frequencies --   1076.1485              1131.0684              1147.4254
 Red. masses --      2.5315                 3.9895                 2.0157
 Frc consts  --      1.7273                 3.0071                 1.5636
 IR Inten    --     12.5085                13.9444                84.4233

                     46                     47                     48
                      A                      A                      A
 Frequencies --   1151.1830              1169.6871              1196.1914
 Red. masses --      1.7610                 2.4294                 1.6635
 Frc consts  --      1.3750                 1.9583                 1.4024
 IR Inten    --     13.7786                 6.4407                 0.9331

                     49                     50                     51
                      A                      A                      A
 Frequencies --   1201.3048              1234.1498              1257.2590
 Red. masses --     12.7375                 6.6598                 2.2743
 Frc consts  --     10.8303                 5.9765                 2.1181
 IR Inten    --    288.9661               324.6306               312.0929

                     52                     53                     54
                      A                      A                      A
 Frequencies --   1281.8332              1292.9161              1297.3041
 Red. masses --      3.2435                 1.1846                 1.8553
 Frc consts  --      3.1400                 1.1667                 1.8397
 IR Inten    --    480.5038                 0.8221               294.9340

                     55                     56                     57
                      A                      A                      A
 Frequencies --   1339.4431              1347.6248              1350.1262
 Red. masses --      1.0682                 1.6338                 2.1510
 Frc consts  --      1.1291                 1.7482                 2.3102
 IR Inten    --      0.3931                11.9997                13.6210

                     58                     59                     60
                      A                      A                      A
 Frequencies --   1383.9836              1432.3813              1443.4095
 Red. masses --      5.7322                 1.2775                 1.5074
 Frc consts  --      6.4690                 1.5443                 1.8503
 IR Inten    --    385.0145                 3.6870                26.7713

                     61                     62                     63
                      A                      A                      A
 Frequencies --   1481.7991              1510.2741              1518.8374
 Red. masses --      3.2140                 1.0626                 4.2370
 Frc consts  --      4.1578                 1.4280                 5.7588
 IR Inten    --     40.4750                 1.8747               112.5137

                     64                     65                     66
                      A                      A                      A
 Frequencies --   1523.6489              1525.1897              1538.0826
 Red. masses --      1.0367                 1.0873                 1.1004
 Frc consts  --      1.4179                 1.4901                 1.5338
 IR Inten    --     10.4609                 1.8945                28.9714

                     67                     68                     69
                      A                      A                      A
 Frequencies --   1597.3724              1669.6827              1689.6909
 Red. masses --      2.3041                 5.6984                 6.4873
 Frc consts  --      3.4639                 9.3599                10.9126
 IR Inten    --    831.8417                32.3451                88.3768

                     70                     71                     72
                      A                      A                      A
 Frequencies --   1850.8208              3071.5570              3079.5960
 Red. masses --     10.6284                 1.0380                 1.0596
 Frc consts  --     21.4510                 5.7700                 5.9210
 IR Inten    --    293.2226                18.0260                 5.4466

                     73                     74                     75
                      A                      A                      A
 Frequencies --   3090.3356              3112.1759              3133.8799
 Red. masses --      1.0574                 1.1044                 1.1063
 Frc consts  --      5.9501                 6.3026                 6.4016
 IR Inten    --     34.4695                 0.0275                 0.4301

                     76                     77                     78
                      A                      A                      A
 Frequencies --   3148.2185              3152.4215              3219.7682
 Red. masses --      1.1067                 1.1015                 1.0917
 Frc consts  --      6.4629                 6.4493                 6.6681
 IR Inten    --     56.8884                23.8366                 2.0835

                     79                     80                     81
                      A                      A                      A
 Frequencies --   3252.0330              3282.0220              3655.5033
 Red. masses --      1.0931                 1.0927                 1.0772
 Frc consts  --      6.8109                 6.9348                 8.4810
 IR Inten    --      2.9148                17.2689                48.4491

 - Thermochemistry -
 -------------------
 Temperature   298.150 Kelvin.  Pressure   1.00000 Atm.
 Atom     1 has atomic number  6 and mass  12.00000

 Molecular mass:   281.04304 amu.
 Principal axes and moments of inertia in atomic units:
                           1         2         3
     Eigenvalues --  3141.81316********************
           X            0.99986   0.01653  -0.00018
           Y           -0.01653   0.99986   0.00019
           Z            0.00018  -0.00019   1.00000
 This molecule is an asymmetric top.
 Rotational symmetry number  1.
 Warning -- assumption of classical behavior for rotation
           may cause significant error
 Rotational temperatures (Kelvin)      0.02757     0.00711     0.00579
 Rotational constants (GHZ):           0.57443     0.14822     0.12056
 Zero-point vibrational energy     564080.2 (Joules/Mol)
                                  134.81840 (Kcal/Mol)
 Warning -- explicit consideration of  26 degrees of freedom as
           vibrations may cause significant error
 Vibrational temperatures:      6.69    25.14    39.69    80.69    98.46
          (Kelvin)            109.71   165.35   188.13   210.84   243.10
                              279.88   331.43   331.59   358.50   360.52
                              466.12   479.37   501.86   537.48   619.16
                              672.79   682.47   742.43   783.39   839.96
                              864.80   939.46   943.05  1026.76  1039.43
                             1096.10  1132.26  1137.36  1242.30  1284.86
                             1287.67  1297.68  1333.89  1337.78  1395.80
                             1459.09  1479.42  1548.34  1627.35  1650.89
                             1656.29  1682.92  1721.05  1728.41  1775.66
                             1808.91  1844.27  1860.22  1866.53  1927.16
                             1938.93  1942.53  1991.24  2060.87  2076.74
                             2131.98  2172.94  2185.27  2192.19  2194.41
                             2212.95  2298.26  2402.30  2431.09  2662.91
                             4419.28  4430.85  4446.30  4477.72  4508.95
                             4529.58  4535.63  4632.52  4678.94  4722.09
                             5259.45

 Zero-point correction=                           0.214847 (Hartree/Particle)
 Thermal correction to Energy=                    0.232448
 Thermal correction to Enthalpy=                  0.233392
 Thermal correction to Gibbs Free Energy=         0.163837
 Sum of electronic and zero-point Energies=          -1390.460228
 Sum of electronic and thermal Energies=             -1390.442626
 Sum of electronic and thermal Enthalpies=           -1390.441682
 Sum of electronic and thermal Free Energies=        -1390.511237

                     E (Thermal)             CV                S
                      KCal/Mol        Cal/Mol-Kelvin    Cal/Mol-Kelvin
 Total                  145.863             62.612            146.391
 Electronic               0.000              0.000              0.000
 Translational            0.889              2.981             42.798
 Rotational               0.889              2.981             34.703
 Vibrational            144.086             56.650             68.889
 Vibration     1          0.593              1.987              9.534
 Vibration     2          0.593              1.986              6.903
 Vibration     3          0.593              1.984              5.996
 Vibration     4          0.596              1.975              4.590
 Vibration     5          0.598              1.969              4.198
 Vibration     6          0.599              1.965              3.985
 Vibration     7          0.608              1.937              3.184
 Vibration     8          0.612              1.923              2.935
 Vibration     9          0.617              1.906              2.717
 Vibration    10          0.625              1.881              2.447
 Vibration    11          0.635              1.847              2.184
 Vibration    12          0.652              1.795              1.876
 Vibration    13          0.652              1.794              1.875
 Vibration    14          0.662              1.764              1.736
 Vibration    15          0.663              1.762              1.727
 Vibration    16          0.709              1.627              1.290
 Vibration    17          0.715              1.609              1.245
 Vibration    18          0.726              1.578              1.172
 Vibration    19          0.745              1.526              1.065
 Vibration    20          0.792              1.404              0.858
 Vibration    21          0.825              1.322              0.744
 Vibration    22          0.831              1.307              0.726
 Vibration    23          0.871              1.215              0.619
 Vibration    24          0.900              1.152              0.556
 Vibration    25          0.941              1.066              0.478
 Vibration    26          0.959              1.030              0.448

 Normal termination of Gaussian 09 at Thu Nov 14 16:52:28 2019.
