 Gaussian 09, Revision E.01,
 Gaussian 09:  ES64L-G09RevE.01 30-Nov-2015

 -------------------------------------------------------------
 # MP2/Gen 5D SCF=Tight INT(grid=ultrafine) maxdisk=3489660928
 -------------------------------------------------------------

 -----------------------
 NM3CA_c2.MP2_GTMP2LARGE
 -----------------------
 Symbolic Z-matrix:
 Charge =  0 Multiplicity = 1

                         Standard orientation:
 ---------------------------------------------------------------------
 Center     Atomic      Atomic             Coordinates (Angstroms)
 Number     Number       Type             X           Y           Z
 ---------------------------------------------------------------------
      1          6           0        0.108098   -0.031467   -0.011090
      2          7           0       -1.202464   -0.520666   -0.008753
      3          6           0       -2.367263    0.206203   -0.001318
      4          8           0       -2.461043    1.405724    0.006077
      5          8           0       -3.407464   -0.642793   -0.003547
      6          6           0       -4.705593   -0.028014    0.003232
      7          6           0       -5.737464   -1.135010    0.000638
      8          6           0       -7.151982   -0.561823    0.007584
      9          6           0        1.140807   -0.973953   -0.031177
     10          6           0        2.459110   -0.551210   -0.039409
     11          6           0        2.790806    0.798109   -0.025620
     12          6           0        1.750354    1.713979   -0.005445
     13          6           0        0.415446    1.331604    0.002358
     14          1           0       -1.321603   -1.522880   -0.016078
     15          1           0       -4.796063    0.613444   -0.876732
     16          1           0       -4.791033    0.604591    0.890071
     17          1           0       -5.579394   -1.770915    0.875897
     18          1           0       -5.584492   -1.762141   -0.881827
     19          1           0       -7.326656    0.053404    0.893549
     20          1           0       -7.896838   -1.358469    0.005849
     21          1           0       -7.331832    0.062077   -0.871255
     22          1           0        0.912809   -2.034040   -0.048594
     23         17           0        2.127205    3.412173    0.005853
     24          1           0       -0.367102    2.074970    0.015180
     25          6           0        3.558579   -1.575528    0.000756
     26          1           0        3.821751    1.126633   -0.038010
     27          9           0        4.660841   -1.151610   -0.628760
     28          9           0        3.916631   -1.862384    1.262925
     29          9           0        3.188961   -2.731534   -0.568562
 ---------------------------------------------------------------------

 SCF Done:  E(RHF) =  -1385.31996903     A.U. after   16 cycles
 E2 =    -0.3334929150D+01 EUMP2 =    -0.13886548981778D+04

 The electronic state is 1-A.
 Alpha  occ. eigenvalues -- -104.85174 -26.34532 -26.34421 -26.34006 -20.61718
 Alpha  occ. eigenvalues --  -20.55050 -15.62416 -11.51515 -11.42498 -11.32108
 Alpha  occ. eigenvalues --  -11.32048 -11.29690 -11.28330 -11.26683 -11.26270
 Alpha  occ. eigenvalues --  -11.25732 -11.23738 -11.22845 -10.57613  -8.04391
 Alpha  occ. eigenvalues --   -8.04219  -8.04216  -1.73696  -1.64178  -1.63680
 Alpha  occ. eigenvalues --   -1.48995  -1.38232  -1.28848  -1.20656  -1.14311
 Alpha  occ. eigenvalues --   -1.08840  -1.06648  -1.02430  -0.97773  -0.96083
 Alpha  occ. eigenvalues --   -0.89371  -0.87107  -0.83803  -0.82805  -0.82352
 Alpha  occ. eigenvalues --   -0.82205  -0.78199  -0.76514  -0.72187  -0.71805
 Alpha  occ. eigenvalues --   -0.71350  -0.71002  -0.70634  -0.68006  -0.66741
 Alpha  occ. eigenvalues --   -0.66608  -0.65327  -0.65226  -0.64255  -0.62096
 Alpha  occ. eigenvalues --   -0.61275  -0.60007  -0.58975  -0.56704  -0.55926
 Alpha  occ. eigenvalues --   -0.55650  -0.53605  -0.52827  -0.51407  -0.50159
 Alpha  occ. eigenvalues --   -0.49804  -0.47823  -0.47484  -0.46422  -0.46164
 Alpha  occ. eigenvalues --   -0.36433  -0.33602
 Alpha virt. eigenvalues --    0.03324   0.04127   0.05291   0.05497   0.05875
 Alpha virt. eigenvalues --    0.06257   0.07457   0.07816   0.08544   0.08816
 Alpha virt. eigenvalues --    0.08915   0.09208   0.09767   0.10571   0.10674

 Mulliken charges:
               1
     1  C    0.128914
     2  N   -0.445970
     3  C    0.457822
     4  O   -0.450263
     5  O   -0.218744
     6  C    0.078584
     7  C    0.259744
     8  C   -0.444455
     9  C   -0.710754
    10  C   -0.245896
    11  C   -0.242177
    12  C    0.667843
    13  C   -0.377933
    14  H    0.225704
    15  H    0.102085
    16  H    0.101847
    17  H    0.048000
    18  H    0.047743
    19  H    0.058286
    20  H    0.090703
    21  H    0.058337
    22  H    0.142608
    23  Cl  -0.183546
    24  H    0.255879
    25  C    1.228130
    26  H    0.165833
    27  F   -0.272926
    28  F   -0.244910
    29  F   -0.280486
 Sum of Mulliken charges =  -0.00000

 Dipole moment (field-independent basis, Debye):
    X=             -4.1205    Y=             -2.1778    Z=             -0.1025  Tot=              4.6618
 Quadrupole moment (field-independent basis, Debye-Ang):
   XX=           -103.8158   YY=           -117.1532   ZZ=           -112.9182
   XY=              9.4993   XZ=             -0.3106   YZ=              0.1396

 Normal termination of Gaussian 09 at Mon Dec  9 12:27:02 2019.
