 Gaussian 09, Revision E.01,
 Gaussian 09:  ES64L-G09RevE.01 30-Nov-2015

 -------------------------------------------------------------
 # MP2/Gen 6D SCF=Tight INT(grid=ultrafine) maxdisk=3489660928
 -------------------------------------------------------------

 -----------------
 NM3CA.MP2_6-31pGd
 -----------------
 Symbolic Z-matrix:
 Charge =  0 Multiplicity = 1

                         Standard orientation:
 ---------------------------------------------------------------------
 Center     Atomic      Atomic             Coordinates (Angstroms)
 Number     Number       Type             X           Y           Z
 ---------------------------------------------------------------------
      1          6           0        0.141669    0.711592   -0.000223
      2          7           0       -1.243678    0.906635   -0.000379
      3          6           0       -2.223435   -0.055904   -0.000142
      4          8           0       -2.055479   -1.246987   -0.000020
      5          8           0       -3.423192    0.547507   -0.000079
      6          6           0       -4.555987   -0.335876    0.000136
      7          6           0       -5.805153    0.518249   -0.000002
      8          6           0       -7.059396   -0.351514    0.000249
      9          6           0        0.738251   -0.554506   -0.000211
     10          6           0        2.122394   -0.635608   -0.000074
     11          6           0        2.940042    0.489210    0.000045
     12          6           0        2.324693    1.729742    0.000019
     13          6           0        0.944402    1.854752   -0.000113
     14          1           0       -1.577984    1.858908   -0.000328
     15          1           0       -4.502470   -0.976722    0.883534
     16          1           0       -4.502531   -0.977081   -0.883004
     17          1           0       -5.792041    1.168270   -0.879075
     18          1           0       -5.791970    1.168675    0.878769
     19          1           0       -7.096217   -0.995179   -0.881954
     20          1           0       -7.961038    0.262080    0.000069
     21          1           0       -7.096219   -0.994668    0.882824
     22          1           0        0.131468   -1.446688   -0.000304
     23         17           0        3.299907    3.170033    0.000165
     24          1           0        0.497646    2.842894   -0.000126
     25          6           0        2.797509   -1.980927    0.000022
     26          1           0        4.019554    0.403405    0.000143
     27          9           0        3.587382   -2.130122   -1.075573
     28          9           0        3.586487   -2.130418    1.076233
     29          9           0        1.928193   -2.993940   -0.000452
 ---------------------------------------------------------------------

 SCF Done:  E(RHF) =  -1385.00446912     A.U. after   18 cycles
 E2 =    -0.2589507744D+01 EUMP2 =    -0.13875939768592D+04

 The electronic state is 1-A.
 Alpha  occ. eigenvalues -- -104.84628 -26.35618 -26.35185 -26.35184 -20.63199
 Alpha  occ. eigenvalues --  -20.56800 -15.63665 -11.52146 -11.43625 -11.33118
 Alpha  occ. eigenvalues --  -11.32860 -11.30286 -11.28796 -11.27589 -11.27167
 Alpha  occ. eigenvalues --  -11.26555 -11.24264 -11.23367 -10.57867  -8.04809
 Alpha  occ. eigenvalues --   -8.04469  -8.04467  -1.73709  -1.64118  -1.63592
 Alpha  occ. eigenvalues --   -1.49530  -1.38748  -1.29265  -1.21283  -1.14719
 Alpha  occ. eigenvalues --   -1.09251  -1.07124  -1.02618  -0.97926  -0.96372
 Alpha  occ. eigenvalues --   -0.88930  -0.88583  -0.83526  -0.82591  -0.82445
 Alpha  occ. eigenvalues --   -0.80376  -0.80173  -0.76322  -0.72166  -0.71595
 Alpha  occ. eigenvalues --   -0.71153  -0.71110  -0.70918  -0.68004  -0.66734
 Alpha  occ. eigenvalues --   -0.66271  -0.65169  -0.64770  -0.64416  -0.62318
 Alpha  occ. eigenvalues --   -0.61606  -0.60188  -0.59124  -0.56822  -0.56238
 Alpha  occ. eigenvalues --   -0.55890  -0.54034  -0.53062  -0.51597  -0.50375
 Alpha  occ. eigenvalues --   -0.49877  -0.47885  -0.47608  -0.47089  -0.46319
 Alpha  occ. eigenvalues --   -0.36778  -0.33605
 Alpha virt. eigenvalues --    0.05194   0.07292   0.07668   0.07728   0.08770
 Alpha virt. eigenvalues --    0.09056   0.09088   0.09526   0.09948   0.10778
 Alpha virt. eigenvalues --    0.11095   0.11103   0.12144   0.12577   0.12748

 Mulliken charges:
               1
     1  C   -0.257437
     2  N   -0.931090
     3  C    0.745853
     4  O   -0.584979
     5  O   -0.480574
     6  C    0.072085
     7  C   -0.278546
     8  C   -0.689532
     9  C    0.291899
    10  C   -0.781008
    11  C   -0.067433
    12  C   -0.099292
    13  C   -0.728266
    14  H    0.501105
    15  H    0.212436
    16  H    0.212444
    17  H    0.204242
    18  H    0.204241
    19  H    0.196633
    20  H    0.204277
    21  H    0.196637
    22  H    0.345204
    23  Cl   0.268631
    24  H    0.255220
    25  C    1.871027
    26  H    0.287213
    27  F   -0.369897
    28  F   -0.369878
    29  F   -0.431215
 Sum of Mulliken charges =  -0.00000

 Dipole moment (field-independent basis, Debye):
    X=             -4.4907    Y=              3.2182    Z=             -0.0001  Tot=              5.5247
 Quadrupole moment (field-independent basis, Debye-Ang):
   XX=           -100.8943   YY=           -117.7424   ZZ=           -113.7760
   XY=             -0.7102   XZ=             -0.0007   YZ=              0.0004

 Normal termination of Gaussian 09 at Mon Dec  9 11:32:23 2019.
