 Gaussian 09, Revision E.01,

 ----------------------------------------------------------------------
 # M062X/6-311+G* SCF=Tight INT(grid=ultrafine) OPT IOP(2/17=4) Empiric
 alDispersion=GD3 SCRF=(SMD,Solvent=h2o) maxdisk=2147483648
 ----------------------------------------------------------------------

 ----------------------------------
 NM3CA.M062X_6-311pGd_opt_water_GD3
 ----------------------------------
 Symbolic Z-matrix:
 Charge =  0 Multiplicity = 1

 SCF Done:  E(RM062X) =  -1390.68387778     A.U. after   15 cycles
 Optimization completed.
    -- Stationary point found.
 Normal termination of Gaussian 09 at Thu Nov 14 15:49:19 2019.
 Gaussian 09:  ES64L-G09RevE.01 30-Nov-2015

 ----------------------------------------------------------------------
 # M062X/6-311+G* SCF=Tight INT(grid=ultrafine) SCRF=(SMD,Solvent=h2o)
 EmpiricalDispersion=GD3 Freq=Noraman maxdisk=2147483648 geom=check gue
 ss=read IOP(2/17=4)
 ----------------------------------------------------------------------

 ----------------------------------
 NM3CA.M062X_6-311pGd_opt_water_GD3
 ----------------------------------
 Structure from the checkpoint file:  "NM3CA.M062X_6-311pGd_opt_water_GD3.chk"
 Charge =  0 Multiplicity = 1

                         Standard orientation:
 ---------------------------------------------------------------------
 Center     Atomic      Atomic             Coordinates (Angstroms)
 Number     Number       Type             X           Y           Z
 ---------------------------------------------------------------------
      1          6           0        0.140545    0.707683   -0.060928
      2          7           0       -1.243803    0.905813   -0.112098
      3          6           0       -2.222052   -0.037457   -0.000416
      4          8           0       -2.050602   -1.232323    0.137308
      5          8           0       -3.424570    0.545352   -0.063844
      6          6           0       -4.561921   -0.337874    0.042535
      7          6           0       -5.810362    0.509622   -0.045753
      8          6           0       -7.054622   -0.366390    0.052815
      9          6           0        0.742151   -0.554754   -0.056124
     10          6           0        2.126580   -0.632382   -0.011224
     11          6           0        2.942835    0.492284    0.023013
     12          6           0        2.316863    1.728419    0.011075
     13          6           0        0.938622    1.855094   -0.028396
     14          1           0       -1.563681    1.864840   -0.179457
     15          1           0       -4.503418   -0.867427    0.995596
     16          1           0       -4.513842   -1.065814   -0.769999
     17          1           0       -5.805968    1.057463   -0.991971
     18          1           0       -5.800786    1.247548    0.761000
     19          1           0       -7.085889   -1.098231   -0.758291
     20          1           0       -7.961595    0.237326   -0.006495
     21          1           0       -7.077625   -0.913016    0.998943
     22          1           0        0.144612   -1.451526   -0.088852
     23         17           0        3.292995    3.173433    0.051568
     24          1           0        0.477269    2.836237   -0.033034
     25          6           0        2.799576   -1.974490   -0.007608
     26          1           0        4.022414    0.407790    0.056452
     27          9           0        3.602854   -2.132468   -1.075454
     28          9           0        3.580054   -2.138535    1.075775
     29          9           0        1.933347   -2.994219   -0.020044
 ---------------------------------------------------------------------

 SCF Done:  E(RM062X) =  -1390.68387778     A.U. after    2 cycles

 The electronic state is 1-A.
 Alpha  occ. eigenvalues -- -102.68774 -25.28808 -25.28414 -25.28399 -19.67650
 Alpha  occ. eigenvalues --  -19.62132 -14.80123 -10.81142 -10.71724 -10.62527
 Alpha  occ. eigenvalues --  -10.62105 -10.59019 -10.58752 -10.56991 -10.56986
 Alpha  occ. eigenvalues --  -10.56656 -10.53076 -10.51908  -9.83044  -7.55554
 Alpha  occ. eigenvalues --   -7.54886  -7.54870  -1.47949  -1.38650  -1.38195
 Alpha  occ. eigenvalues --   -1.25728  -1.15801  -1.07898  -1.01464  -0.96223
 Alpha  occ. eigenvalues --   -0.90745  -0.88653  -0.85339  -0.82346  -0.79748
 Alpha  occ. eigenvalues --   -0.74623  -0.73858  -0.70539  -0.70276  -0.67796
 Alpha  occ. eigenvalues --   -0.67281  -0.66647  -0.63745  -0.60018  -0.59411
 Alpha  occ. eigenvalues --   -0.59318  -0.58520  -0.58479  -0.56510  -0.54962
 Alpha  occ. eigenvalues --   -0.54254  -0.53681  -0.53438  -0.52217  -0.51815
 Alpha  occ. eigenvalues --   -0.50944  -0.49634  -0.49564  -0.46908  -0.46329
 Alpha  occ. eigenvalues --   -0.45296  -0.44417  -0.43162  -0.42716  -0.40146
 Alpha  occ. eigenvalues --   -0.40130  -0.39364  -0.39195  -0.38101  -0.38017
 Alpha  occ. eigenvalues --   -0.32448  -0.29536
 Alpha virt. eigenvalues --   -0.01490  -0.00226   0.00989   0.02321   0.02704
 Alpha virt. eigenvalues --    0.03193   0.03597   0.03785   0.04683   0.04918
 Alpha virt. eigenvalues --    0.05152   0.05364   0.06014   0.06663   0.07122

 Mulliken charges:
               1
     1  C   -1.341604
     2  N   -0.484942
     3  C    0.109285
     4  O   -0.423039
     5  O   -0.089966
     6  C   -0.360474
     7  C   -0.160490
     8  C   -1.067291
     9  C   -0.128235
    10  C   -0.777049
    11  C    0.631899
    12  C    0.146380
    13  C   -0.373810
    14  H    0.485305
    15  H    0.289852
    16  H    0.290496
    17  H    0.270937
    18  H    0.270869
    19  H    0.272255
    20  H    0.284020
    21  H    0.272334
    22  H    0.332436
    23  Cl   0.400192
    24  H    0.321393
    25  C    0.788630
    26  H    0.341099
    27  F   -0.075519
    28  F   -0.078386
    29  F   -0.146577
 Sum of Mulliken charges =  -0.00000

 Dipole moment (field-independent basis, Debye):
    X=             -5.1055    Y=              4.7960    Z=             -0.3668  Tot=              7.0144
 Quadrupole moment (field-independent basis, Debye-Ang):
   XX=            -98.9261   YY=           -116.7797   ZZ=           -113.4908
   XY=             -1.3201   XZ=              0.4453   YZ=              0.3089

  Exact polarizability: 264.249  17.606 232.027   1.641  -1.373 138.563
 Approx polarizability: 214.028  10.904 204.624   1.775  -1.236 126.687

                      1                      2                      3
                      A                      A                      A
 Frequencies --      2.3685                21.2687                26.3601
 Red. masses --      4.0140                14.2932                 5.7660
 Frc consts  --      0.0000                 0.0038                 0.0024
 IR Inten    --      5.9212                 0.0191                 0.8501

                      4                      5                      6
                      A                      A                      A
 Frequencies --     56.0163                72.3810                86.3456
 Red. masses --      5.5773                 3.2021                 2.5809
 Frc consts  --      0.0103                 0.0099                 0.0113
 IR Inten    --      0.1039                 1.5382                 4.9863

                      7                      8                      9
                      A                      A                      A
 Frequencies --    112.0111               122.1802               159.7727
 Red. masses --      7.7116                 7.8125                 9.3625
 Frc consts  --      0.0570                 0.0687                 0.1408
 IR Inten    --      1.0198                 0.4368                 4.3157

                     10                     11                     12
                      A                      A                      A
 Frequencies --    168.2974               191.5878               227.2558
 Red. masses --      3.1195                 5.3717                 7.5973
 Frc consts  --      0.0521                 0.1162                 0.2312
 IR Inten    --      6.9090                 0.1334                 1.3185

                     13                     14                     15
                      A                      A                      A
 Frequencies --    240.6028               246.7122               253.8317
 Red. masses --      1.2871                 3.1232                 5.1791
 Frc consts  --      0.0439                 0.1120                 0.1966
 IR Inten    --      0.8499                 1.3409                 2.3322

                     16                     17                     18
                      A                      A                      A
 Frequencies --    331.0354               337.6257               345.8999
 Red. masses --     14.8238                 7.4798                 8.0039
 Frc consts  --      0.9571                 0.5024                 0.5642
 IR Inten    --      2.0641                 0.1907                 8.4927

                     19                     20                     21
                      A                      A                      A
 Frequencies --    360.6417               448.6960               450.6855
 Red. masses --      5.3806                 9.1635                 5.0452
 Frc consts  --      0.4123                 1.0870                 0.6038
 IR Inten    --     36.3778                10.7023                 1.9962

                     22                     23                     24
                      A                      A                      A
 Frequencies --    481.5392               515.3341               556.6956
 Red. masses --      6.6111                10.2056                 1.1950
 Frc consts  --      0.9032                 1.5969                 0.2182
 IR Inten    --      5.0402                 1.0614               166.5138

                     25                     26                     27
                      A                      A                      A
 Frequencies --    578.1069               599.5843               653.9084
 Red. masses --      4.4828                10.2301                 5.0067
 Frc consts  --      0.8827                 2.1669                 1.2614
 IR Inten    --     22.0972                 0.9619                 5.7061

                     28                     29                     30
                      A                      A                      A
 Frequencies --    656.2355               707.6706               710.9784
 Red. masses --      6.3393                 2.4336                11.9133
 Frc consts  --      1.6085                 0.7181                 3.5481
 IR Inten    --     21.0544                39.3260                63.8818

                     31                     32                     33
                      A                      A                      A
 Frequencies --    764.8960               786.9195               788.2203
 Red. masses --      1.1292                 7.2489                 8.8929
 Frc consts  --      0.3892                 2.6448                 3.2553
 IR Inten    --     19.5065                28.8054                11.0212

                     34                     35                     36
                      A                      A                      A
 Frequencies --    850.1465               888.9006               906.7333
 Red. masses --     11.7402                 1.5572                 1.1467
 Frc consts  --      4.9993                 0.7249                 0.5555
 IR Inten    --     77.4666                81.4337                 4.1354

                     37                     38                     39
                      A                      A                      A
 Frequencies --    914.1749               923.0535               928.1246
 Red. masses --      1.5603                 1.3621                 1.7595
 Frc consts  --      0.7683                 0.6838                 0.8930
 IR Inten    --     65.2706                 0.5246                 8.2114

                     40                     41                     42
                      A                      A                      A
 Frequencies --    964.8228              1013.1435              1014.6310
 Red. masses --      4.9525                 6.1552                 7.4705
 Frc consts  --      2.7163                 3.7225                 4.5312
 IR Inten    --    176.2120                 8.7694                43.3141

                     43                     44                     45
                      A                      A                      A
 Frequencies --   1075.0628              1119.7126              1141.0645
 Red. masses --      2.4081                 7.7989                 1.9975
 Frc consts  --      1.6398                 5.7610                 1.5323
 IR Inten    --     12.8175               121.9378                80.5097

                     46                     47                     48
                      A                      A                      A
 Frequencies --   1144.3497              1162.9179              1165.5553
 Red. masses --     11.0726                 2.0907                 2.3401
 Frc consts  --      8.5431                 1.6659                 1.8731
 IR Inten    --    448.8837                 1.5880                 8.4042

                     49                     50                     51
                      A                      A                      A
 Frequencies --   1189.9519              1191.3449              1253.4900
 Red. masses --      4.3250                 1.6580                 2.8101
 Frc consts  --      3.6082                 1.3864                 2.6014
 IR Inten    --    611.7831                 1.4808              1041.6991

                     52                     53                     54
                      A                      A                      A
 Frequencies --   1268.3782              1288.2271              1311.3529
 Red. masses --      2.8558                 1.1823                 1.8979
 Frc consts  --      2.7069                 1.1560                 1.9229
 IR Inten    --    186.3770                 2.8465               256.4609

                     55                     56                     57
                      A                      A                      A
 Frequencies --   1335.8551              1344.4226              1349.3845
 Red. masses --      1.0666                 1.4805                 2.3229
 Frc consts  --      1.1214                 1.5766                 2.4920
 IR Inten    --      1.6768                26.6833               194.7950

                     58                     59                     60
                      A                      A                      A
 Frequencies --   1372.4190              1417.5017              1441.9863
 Red. masses --      4.3842                 1.2755                 1.5047
 Frc consts  --      4.8653                 1.5099                 1.8434
 IR Inten    --    288.1140                 9.4882                11.1988

                     61                     62                     63
                      A                      A                      A
 Frequencies --   1484.3901              1487.0073              1501.5423
 Red. masses --      1.1382                 2.8811                 1.0378
 Frc consts  --      1.4777                 3.7535                 1.3787
 IR Inten    --     38.3375               230.5385                13.8770

                     64                     65                     66
                      A                      A                      A
 Frequencies --   1508.9900              1512.2559              1523.1985
 Red. masses --      1.1010                 3.5838                 1.1116
 Frc consts  --      1.4771                 4.8289                 1.5195
 IR Inten    --      2.3677               453.4963                26.0651

                     67                     68                     69
                      A                      A                      A
 Frequencies --   1597.7594              1665.4801              1682.9729
 Red. masses --      1.9881                 6.2715                 5.4952
 Frc consts  --      2.9903                10.2494                 9.1703
 IR Inten    --    555.5018               419.6827                26.2915

                     70                     71                     72
                      A                      A                      A
 Frequencies --   1742.3397              3070.9505              3080.9355
 Red. masses --      9.8310                 1.0370                 1.0602
 Frc consts  --     17.5839                 5.7622                 5.9294
 IR Inten    --    834.9889                30.7376                25.3026

                     73                     74                     75
                      A                      A                      A
 Frequencies --   3098.2796              3116.7987              3139.1809
 Red. masses --      1.0569                 1.1043                 1.1049
 Frc consts  --      5.9774                 6.3206                 6.4149
 IR Inten    --     48.7854                 1.2420                34.5233

                     76                     77                     78
                      A                      A                      A
 Frequencies --   3149.8568              3156.0603              3231.2095
 Red. masses --      1.1024                 1.1103                 1.0936
 Frc consts  --      6.4442                 6.5159                 6.7275
 IR Inten    --     41.4108                80.8712                 1.9134

                     79                     80                     81
                      A                      A                      A
 Frequencies --   3243.3167              3305.1117              3604.4613
 Red. masses --      1.0937                 1.0915                 1.0783
 Frc consts  --      6.7786                 7.0250                 8.2541
 IR Inten    --      4.9705                24.9354               173.9743

 - Thermochemistry -
 -------------------
 Temperature   298.150 Kelvin.  Pressure   1.00000 Atm.
 Atom     1 has atomic number  6 and mass  12.00000

 Molecular mass:   281.04304 amu.
 Principal axes and moments of inertia in atomic units:
                           1         2         3
     Eigenvalues --  3405.64807********************
           X            0.99997   0.00772  -0.00030
           Y           -0.00772   0.99997  -0.00084
           Z            0.00029   0.00084   1.00000
 This molecule is an asymmetric top.
 Rotational symmetry number  1.
 Warning -- assumption of classical behavior for rotation
           may cause significant error
 Rotational temperatures (Kelvin)      0.02543     0.00759     0.00599
 Rotational constants (GHZ):           0.52993     0.15816     0.12479
 Zero-point vibrational energy     561888.8 (Joules/Mol)
                                  134.29464 (Kcal/Mol)
 Warning -- explicit consideration of  26 degrees of freedom as
           vibrations may cause significant error
 Vibrational temperatures:      3.41    30.60    37.93    80.59   104.14
          (Kelvin)            124.23   161.16   175.79   229.88   242.14
                              275.65   326.97   346.17   354.96   365.21
                              476.29   485.77   497.67   518.88   645.57
                              648.44   692.83   741.45   800.96   831.77
                              862.67   940.83   944.18  1018.18  1022.94
                             1100.51  1132.20  1134.07  1223.17  1278.93
                             1304.59  1315.29  1328.07  1335.36  1388.16
                             1457.69  1459.83  1546.77  1611.01  1641.74
                             1646.46  1673.18  1676.97  1712.07  1714.08
                             1803.49  1824.91  1853.47  1886.74  1922.00
                             1934.32  1941.46  1974.60  2039.47  2074.69
                             2135.70  2139.47  2160.38  2171.10  2175.80
                             2191.54  2298.82  2396.25  2421.42  2506.84
                             4418.41  4432.77  4457.73  4484.37  4516.58
                             4531.94  4540.86  4648.98  4666.40  4755.31
                             5186.01

 Zero-point correction=                           0.214012 (Hartree/Particle)
 Thermal correction to Energy=                    0.231591
 Thermal correction to Enthalpy=                  0.232536
 Thermal correction to Gibbs Free Energy=         0.162652
 Sum of electronic and zero-point Energies=          -1390.469866
 Sum of electronic and thermal Energies=             -1390.452286
 Sum of electronic and thermal Enthalpies=           -1390.451342
 Sum of electronic and thermal Free Energies=        -1390.521225

                     E (Thermal)             CV                S
                      KCal/Mol        Cal/Mol-Kelvin    Cal/Mol-Kelvin
 Total                  145.326             62.753            147.082
 Electronic               0.000              0.000              0.000
 Translational            0.889              2.981             42.798
 Rotational               0.889              2.981             34.685
 Vibrational            143.548             56.791             69.599
 Vibration     1          0.592              1.987             10.873
 Vibration     2          0.593              1.985              6.512
 Vibration     3          0.593              1.985              6.086
 Vibration     4          0.596              1.975              4.593
 Vibration     5          0.598              1.967              4.088
 Vibration     6          0.601              1.959              3.741
 Vibration     7          0.607              1.940              3.234
 Vibration     8          0.610              1.931              3.066
 Vibration     9          0.622              1.892              2.552
 Vibration    10          0.625              1.881              2.454
 Vibration    11          0.634              1.852              2.212
 Vibration    12          0.651              1.799              1.901
 Vibration    13          0.658              1.778              1.798
 Vibration    14          0.661              1.768              1.754
 Vibration    15          0.665              1.756              1.704
 Vibration    16          0.713              1.614              1.255
 Vibration    17          0.718              1.600              1.223
 Vibration    18          0.724              1.584              1.185
 Vibration    19          0.735              1.553              1.119
 Vibration    20          0.808              1.364              0.800
 Vibration    21          0.809              1.359              0.794
 Vibration    22          0.838              1.291              0.706
 Vibration    23          0.870              1.216              0.621
 Vibration    24          0.912              1.125              0.530
 Vibration    25          0.935              1.079              0.489
 Vibration    26          0.958              1.033              0.450

 Optimization completed on the basis of negligible forces.
    -- Stationary point found.
 Normal termination of Gaussian 09 at Thu Nov 14 16:53:36 2019.
