 Gaussian 09, Revision E.01,

 ----------------------------------------------------------------------
 # M062X/6-311+G* SCF=Tight INT(grid=ultrafine) OPT IOP(2/17=4) Empiric
 alDispersion=GD3 SCRF=(SMD,Solvent=h2o) maxdisk=2147483648
 ----------------------------------------------------------------------

 -------------------------------------
 NM3CA_c2.M062X_6-311pGd_opt_water_GD3
 -------------------------------------
 Symbolic Z-matrix:
 Charge =  0 Multiplicity = 1

 SCF Done:  E(RM062X) =  -1390.68392069     A.U. after   15 cycles
 Optimization completed.
    -- Stationary point found.
 Normal termination of Gaussian 09 at Thu Nov 14 15:49:11 2019.
 Gaussian 09:  ES64L-G09RevE.01 30-Nov-2015

 ----------------------------------------------------------------------
 # M062X/6-311+G* SCF=Tight INT(grid=ultrafine) SCRF=(SMD,Solvent=h2o)
 EmpiricalDispersion=GD3 Freq=Noraman maxdisk=2147483648 geom=check gue
 ss=read IOP(2/17=4)
 ----------------------------------------------------------------------

 -------------------------------------
 NM3CA_c2.M062X_6-311pGd_opt_water_GD3
 -------------------------------------
 Structure from the checkpoint file:  "NM3CA_c2.M062X_6-311pGd_opt_water_GD3.chk"
 Charge =  0 Multiplicity = 1

                         Standard orientation:
 ---------------------------------------------------------------------
 Center     Atomic      Atomic             Coordinates (Angstroms)
 Number     Number       Type             X           Y           Z
 ---------------------------------------------------------------------
      1          6           0       -0.098649   -0.024273   -0.083928
      2          7           0        1.211137   -0.511201   -0.146411
      3          6           0        2.367673    0.194188    0.006232
      4          8           0        2.454108    1.390739    0.198442
      5          8           0        3.416471   -0.631032   -0.085242
      6          6           0        4.718685   -0.024733    0.059837
      7          6           0        5.749675   -1.122884   -0.068433
      8          6           0        7.157001   -0.552160    0.068595
      9          6           0       -1.121747   -0.980143   -0.045670
     10          6           0       -2.439365   -0.566783    0.000381
     11          6           0       -2.789791    0.781962    0.014627
     12          6           0       -1.758550    1.701848   -0.026046
     13          6           0       -0.418927    1.333454   -0.079115
     14          1           0        1.317160   -1.513341   -0.250018
     15          1           0        4.769849    0.461327    1.036239
     16          1           0        4.838663    0.731479   -0.718760
     17          1           0        5.631944   -1.613062   -1.038697
     18          1           0        5.568948   -1.875973    0.703399
     19          1           0        7.357313    0.191982   -0.706349
     20          1           0        7.906461   -1.339963   -0.022735
     21          1           0        7.294191   -0.070603    1.040038
     22          1           0       -0.868679   -2.033987   -0.051403
     23         17           0       -2.147445    3.403728   -0.016728
     24          1           0        0.349292    2.090067   -0.121744
     25          6           0       -3.549229   -1.575929    0.033877
     26          1           0       -3.825601    1.096748    0.054830
     27          9           0       -4.336520   -1.415153    1.112261
     28          9           0       -4.354477   -1.466257   -1.038449
     29          9           0       -3.106362   -2.837987    0.059156
 ---------------------------------------------------------------------

 SCF Done:  E(RM062X) =  -1390.68392069     A.U. after    2 cycles

 The electronic state is 1-A.
 Alpha  occ. eigenvalues -- -102.68665 -25.28876 -25.28478 -25.28448 -19.67650
 Alpha  occ. eigenvalues --  -19.62150 -14.80104 -10.81224 -10.71722 -10.62465
 Alpha  occ. eigenvalues --  -10.62071 -10.59037 -10.58824 -10.56997 -10.56969
 Alpha  occ. eigenvalues --  -10.56694 -10.53085 -10.51911  -9.82937  -7.55445
 Alpha  occ. eigenvalues --   -7.54780  -7.54763  -1.48018  -1.38725  -1.38257
 Alpha  occ. eigenvalues --   -1.25725  -1.15818  -1.07910  -1.01414  -0.96221
 Alpha  occ. eigenvalues --   -0.90671  -0.88659  -0.85515  -0.82259  -0.79778
 Alpha  occ. eigenvalues --   -0.75017  -0.73029  -0.70365  -0.70342  -0.69389
 Alpha  occ. eigenvalues --   -0.67517  -0.65058  -0.64306  -0.60003  -0.59504
 Alpha  occ. eigenvalues --   -0.59307  -0.58543  -0.58379  -0.56616  -0.55022
 Alpha  occ. eigenvalues --   -0.54309  -0.53705  -0.53392  -0.52274  -0.51704
 Alpha  occ. eigenvalues --   -0.50962  -0.49738  -0.49513  -0.46882  -0.46376
 Alpha  occ. eigenvalues --   -0.45274  -0.44392  -0.43224  -0.42730  -0.40183
 Alpha  occ. eigenvalues --   -0.40133  -0.39145  -0.39096  -0.38140  -0.38069
 Alpha  occ. eigenvalues --   -0.32542  -0.29485
 Alpha virt. eigenvalues --   -0.01402  -0.00310   0.00954   0.02349   0.02679
 Alpha virt. eigenvalues --    0.03193   0.03715   0.03785   0.04512   0.05032
 Alpha virt. eigenvalues --    0.05247   0.05536   0.05654   0.06629   0.07094

 Mulliken charges:
               1
     1  C   -0.779544
     2  N   -0.486028
     3  C    0.111177
     4  O   -0.422517
     5  O   -0.092289
     6  C   -0.361952
     7  C   -0.155668
     8  C   -1.065257
     9  C   -0.612830
    10  C   -1.211716
    11  C    0.402891
    12  C    0.683684
    13  C   -0.394955
    14  H    0.483068
    15  H    0.289423
    16  H    0.290565
    17  H    0.270908
    18  H    0.270971
    19  H    0.272125
    20  H    0.283961
    21  H    0.272503
    22  H    0.318815
    23  Cl   0.408015
    24  H    0.335594
    25  C    0.843204
    26  H    0.345036
    27  F   -0.075992
    28  F   -0.072534
    29  F   -0.150659
 Sum of Mulliken charges =  -0.00000

 Dipole moment (field-independent basis, Debye):
    X=              4.6290    Y=             -3.5890    Z=             -0.5546  Tot=              5.8836
 Quadrupole moment (field-independent basis, Debye-Ang):
   XX=           -103.7395   YY=           -117.9699   ZZ=           -113.5341
   XY=            -11.1565   XZ=             -0.7657   YZ=             -0.6077

  Exact polarizability: 259.551  -6.971 235.935  -0.841   2.943 138.965
 Approx polarizability: 209.173  -5.723 209.332  -1.182   2.686 127.087

                      1                      2                      3
                      A                      A                      A
 Frequencies --     13.7350                27.5031                32.0213
 Red. masses --     16.9028                 4.8379                 3.8443
 Frc consts  --      0.0019                 0.0022                 0.0023
 IR Inten    --      0.0584                 0.7494                 4.9149

                      4                      5                      6
                      A                      A                      A
 Frequencies --     55.9201                76.0457                89.9076
 Red. masses --      5.4789                 3.5623                 2.6248
 Frc consts  --      0.0101                 0.0121                 0.0125
 IR Inten    --      0.1707                 1.4999                 6.4365

                      7                      8                      9
                      A                      A                      A
 Frequencies --    114.0287               129.6415               145.2602
 Red. masses --      7.9102                 9.3697                 7.5675
 Frc consts  --      0.0606                 0.0928                 0.0941
 IR Inten    --      1.2120                 3.9523                 1.9210

                     10                     11                     12
                      A                      A                      A
 Frequencies --    166.7657               196.4543               226.0869
 Red. masses --      3.0783                 5.3579                 7.5920
 Frc consts  --      0.0504                 0.1218                 0.2286
 IR Inten    --      6.8155                 0.8360                 1.8668

                     13                     14                     15
                      A                      A                      A
 Frequencies --    240.0223               246.8055               253.5530
 Red. masses --      1.2185                 3.8712                 5.0332
 Frc consts  --      0.0414                 0.1389                 0.1906
 IR Inten    --      0.5684                 1.3794                 1.1625

                     16                     17                     18
                      A                      A                      A
 Frequencies --    326.1241               331.7924               345.9276
 Red. masses --     11.3270                 7.2891                 6.2071
 Frc consts  --      0.7098                 0.4728                 0.4376
 IR Inten    --      1.5155                 0.0324                 5.1929

                     19                     20                     21
                      A                      A                      A
 Frequencies --    370.8940               432.6255               466.3503
 Red. masses --      6.7145                 8.1002                 6.0071
 Frc consts  --      0.5442                 0.8932                 0.7697
 IR Inten    --     39.6332                 7.6865                 2.6240

                     22                     23                     24
                      A                      A                      A
 Frequencies --    475.6679               514.8464               563.8231
 Red. masses --      6.3048                10.3068                 1.1224
 Frc consts  --      0.8405                 1.6096                 0.2102
 IR Inten    --      2.8931                 7.6774               181.6274

                     25                     26                     27
                      A                      A                      A
 Frequencies --    578.2775               599.8162               648.3539
 Red. masses --      5.6267                10.0943                 4.7921
 Frc consts  --      1.1086                 2.1397                 1.1869
 IR Inten    --      0.0458                 0.8263                 4.4607

                     28                     29                     30
                      A                      A                      A
 Frequencies --    652.2185               705.9054               715.2761
 Red. masses --      6.1900                 2.4846                12.1565
 Frc consts  --      1.5514                 0.7295                 3.6644
 IR Inten    --     20.1363                46.6349                61.9112

                     31                     32                     33
                      A                      A                      A
 Frequencies --    767.0516               783.2831               789.6237
 Red. masses --      1.1326                 8.6599                 7.2191
 Frc consts  --      0.3926                 3.1304                 2.6520
 IR Inten    --     19.6884                32.3011                36.1560

                     34                     35                     36
                      A                      A                      A
 Frequencies --    855.8532               887.0343               905.3202
 Red. masses --     12.0934                 1.6009                 1.5082
 Frc consts  --      5.2191                 0.7422                 0.7283
 IR Inten    --     45.2925               102.3659                25.6172

                     37                     38                     39
                      A                      A                      A
 Frequencies --    908.5587               913.6459               927.4225
 Red. masses --      1.1469                 1.3975                 1.7844
 Frc consts  --      0.5578                 0.6873                 0.9043
 IR Inten    --      5.3549                12.8902                 7.3340

                     40                     41                     42
                      A                      A                      A
 Frequencies --    963.3766              1012.3696              1015.9016
 Red. masses --      4.6726                 6.5876                 6.8991
 Frc consts  --      2.5551                 3.9779                 4.1952
 IR Inten    --    175.7205                13.8672                33.1828

                     43                     44                     45
                      A                      A                      A
 Frequencies --   1075.1867              1115.8159              1144.8482
 Red. masses --      2.4179                 6.1370                11.8968
 Frc consts  --      1.6469                 4.5019                 9.1870
 IR Inten    --     14.9377                52.5663               461.1073

                     46                     47                     48
                      A                      A                      A
 Frequencies --   1149.7929              1155.9844              1166.2646
 Red. masses --      1.8784                 2.1382                 2.3821
 Frc consts  --      1.4631                 1.6835                 1.9090
 IR Inten    --      5.9354               164.0068                60.4903

                     49                     50                     51
                      A                      A                      A
 Frequencies --   1189.8707              1191.0566              1252.1000
 Red. masses --      6.6036                 1.6509                 2.5995
 Frc consts  --      5.5084                 1.3798                 2.4012
 IR Inten    --    655.5467                 1.4854               896.8532

                     52                     53                     54
                      A                      A                      A
 Frequencies --   1277.1433              1289.1563              1301.3959
 Red. masses --      2.4977                 1.1854                 2.1995
 Frc consts  --      2.4003                 1.1607                 2.1948
 IR Inten    --    172.5488                 2.5689               224.2756

                     55                     56                     57
                      A                      A                      A
 Frequencies --   1336.6333              1345.9317              1353.9274
 Red. masses --      1.0685                 1.4363                 2.1201
 Frc consts  --      1.1247                 1.5330                 2.2898
 IR Inten    --      1.9631                25.0454                90.8944

                     58                     59                     60
                      A                      A                      A
 Frequencies --   1381.6162              1419.5064              1441.6373
 Red. masses --      5.1608                 1.2740                 1.4982
 Frc consts  --      5.8042                 1.5125                 1.8346
 IR Inten    --    619.5989                 8.7081                 8.4699

                     61                     62                     63
                      A                      A                      A
 Frequencies --   1478.4117              1485.0560              1502.0863
 Red. masses --      2.8507                 1.0844                 1.0374
 Frc consts  --      3.6711                 1.4091                 1.3791
 IR Inten    --     33.5797                 1.0226                13.7369

                     64                     65                     66
                      A                      A                      A
 Frequencies --   1508.4173              1517.7503              1522.0989
 Red. masses --      1.0971                 3.0141                 1.2089
 Frc consts  --      1.4708                 4.0909                 1.6502
 IR Inten    --      0.3384               227.0573                17.0931

                     67                     68                     69
                      A                      A                      A
 Frequencies --   1585.9683              1666.0069              1689.1445
 Red. masses --      2.1847                 4.9878                 6.4077
 Frc consts  --      3.2377                 8.1566                10.7718
 IR Inten    --   1106.2207                20.0371               123.5402

                     70                     71                     72
                      A                      A                      A
 Frequencies --   1742.2318              3070.5037              3080.1643
 Red. masses --      9.9830                 1.0369                 1.0603
 Frc consts  --     17.8536                 5.7598                 5.9269
 IR Inten    --    861.0728                31.2963                25.7729

                     73                     74                     75
                      A                      A                      A
 Frequencies --   3097.4236              3115.9566              3138.8551
 Red. masses --      1.0569                 1.1042                 1.1048
 Frc consts  --      5.9744                 6.3167                 6.4134
 IR Inten    --     49.1078                 1.4431                34.4237

                     76                     77                     78
                      A                      A                      A
 Frequencies --   3148.6734              3155.0154              3242.3279
 Red. masses --      1.1025                 1.1102                 1.0943
 Frc consts  --      6.4399                 6.5110                 6.7779
 IR Inten    --     41.1498                82.1835                 5.6246

                     79                     80                     81
                      A                      A                      A
 Frequencies --   3245.7691              3283.9779              3618.0352
 Red. masses --      1.0923                 1.0930                 1.0783
 Frc consts  --      6.7802                 6.9448                 8.3165
 IR Inten    --      3.6486                20.3820               177.4426

 - Thermochemistry -
 -------------------
 Temperature   298.150 Kelvin.  Pressure   1.00000 Atm.
 Atom     1 has atomic number  6 and mass  12.00000

 Molecular mass:   281.04304 amu.
 Principal axes and moments of inertia in atomic units:
                           1         2         3
     Eigenvalues --  3129.68185********************
           X            0.99987  -0.01629   0.00047
           Y            0.01629   0.99987   0.00087
           Z           -0.00049  -0.00086   1.00000
 This molecule is an asymmetric top.
 Rotational symmetry number  1.
 Warning -- assumption of classical behavior for rotation
           may cause significant error
 Rotational temperatures (Kelvin)      0.02767     0.00709     0.00578
 Rotational constants (GHZ):           0.57665     0.14773     0.12043
 Zero-point vibrational energy     561962.7 (Joules/Mol)
                                  134.31232 (Kcal/Mol)
 Warning -- explicit consideration of  26 degrees of freedom as
           vibrations may cause significant error
 Vibrational temperatures:     19.76    39.57    46.07    80.46   109.41
          (Kelvin)            129.36   164.06   186.52   209.00   239.94
                              282.65   325.29   345.34   355.10   364.81
                              469.22   477.37   497.71   533.63   622.45
                              670.97   684.38   740.75   811.21   832.01
                              863.00   932.84   938.40  1015.64  1029.12
                             1103.61  1126.97  1136.09  1231.38  1276.24
                             1302.55  1307.21  1314.53  1334.35  1386.08
                             1456.57  1461.65  1546.95  1605.41  1647.18
                             1654.29  1663.20  1677.99  1711.96  1713.66
                             1801.49  1837.52  1854.81  1872.42  1923.11
                             1936.49  1948.00  1987.84  2042.35  2074.19
                             2127.10  2136.66  2161.16  2170.27  2183.70
                             2189.96  2281.85  2397.01  2430.30  2506.68
                             4417.76  4431.66  4456.50  4483.16  4516.11
                             4530.23  4539.36  4664.98  4669.93  4724.91
                             5205.54

 Zero-point correction=                           0.214040 (Hartree/Particle)
 Thermal correction to Energy=                    0.231568
 Thermal correction to Enthalpy=                  0.232512
 Thermal correction to Gibbs Free Energy=         0.164763
 Sum of electronic and zero-point Energies=          -1390.469880
 Sum of electronic and thermal Energies=             -1390.452353
 Sum of electronic and thermal Enthalpies=           -1390.451409
 Sum of electronic and thermal Free Energies=        -1390.519157

                     E (Thermal)             CV                S
                      KCal/Mol        Cal/Mol-Kelvin    Cal/Mol-Kelvin
 Total                  145.311             62.779            142.589
 Electronic               0.000              0.000              0.000
 Translational            0.889              2.981             42.798
 Rotational               0.889              2.981             34.704
 Vibrational            143.534             56.817             65.087
 Vibration     1          0.593              1.986              7.381
 Vibration     2          0.593              1.984              6.002
 Vibration     3          0.594              1.983              5.700
 Vibration     4          0.596              1.975              4.596
 Vibration     5          0.599              1.965              3.990
 Vibration     6          0.602              1.956              3.662
 Vibration     7          0.607              1.938              3.199
 Vibration     8          0.612              1.924              2.951
 Vibration     9          0.617              1.908              2.733
 Vibration    10          0.624              1.883              2.472
 Vibration    11          0.636              1.845              2.166
 Vibration    12          0.650              1.801              1.910
 Vibration    13          0.657              1.779              1.803
 Vibration    14          0.661              1.768              1.753
 Vibration    15          0.665              1.757              1.706
 Vibration    16          0.710              1.623              1.279
 Vibration    17          0.714              1.612              1.251
 Vibration    18          0.724              1.584              1.185
 Vibration    19          0.743              1.532              1.076
 Vibration    20          0.794              1.399              0.850
 Vibration    21          0.824              1.325              0.748
 Vibration    22          0.832              1.304              0.722
 Vibration    23          0.870              1.217              0.622
 Vibration    24          0.920              1.110              0.516
 Vibration    25          0.935              1.078              0.489
 Vibration    26          0.958              1.032              0.450

 Optimization completed.
    -- Stationary point found.
 Normal termination of Gaussian 09 at Thu Nov 14 16:52:09 2019.
