 Gaussian 16, Revision C.01,
 Gaussian 16:  ES64L-G16RevC.01  3-Jul-2019

 ----------------------------------------------------------------------
 # DSDPBEP86/AUG-cc-PVTZ SCF=Tight INT(grid=ultrafine) MaxDisk=1400000M
 B
 ----------------------------------------------------------------------

 ---------------------------
 NM3CA.DSDPBEP86_AUG-cc-PVTZ
 ---------------------------
 Symbolic Z-matrix:
 Charge =  0 Multiplicity = 1

                         Standard orientation:
 ---------------------------------------------------------------------
 Center     Atomic      Atomic             Coordinates (Angstroms)
 Number     Number       Type             X           Y           Z
 ---------------------------------------------------------------------
      1          6           0        0.141669    0.711592   -0.000223
      2          7           0       -1.243678    0.906635   -0.000379
      3          6           0       -2.223435   -0.055904   -0.000142
      4          8           0       -2.055479   -1.246987   -0.000020
      5          8           0       -3.423192    0.547507   -0.000079
      6          6           0       -4.555987   -0.335876    0.000136
      7          6           0       -5.805153    0.518249   -0.000002
      8          6           0       -7.059396   -0.351514    0.000249
      9          6           0        0.738251   -0.554506   -0.000211
     10          6           0        2.122394   -0.635608   -0.000074
     11          6           0        2.940042    0.489210    0.000045
     12          6           0        2.324693    1.729742    0.000019
     13          6           0        0.944402    1.854752   -0.000113
     14          1           0       -1.577984    1.858908   -0.000328
     15          1           0       -4.502470   -0.976722    0.883534
     16          1           0       -4.502531   -0.977081   -0.883004
     17          1           0       -5.792041    1.168270   -0.879075
     18          1           0       -5.791970    1.168675    0.878769
     19          1           0       -7.096217   -0.995179   -0.881954
     20          1           0       -7.961038    0.262080    0.000069
     21          1           0       -7.096219   -0.994668    0.882824
     22          1           0        0.131468   -1.446688   -0.000304
     23         17           0        3.299907    3.170033    0.000165
     24          1           0        0.497646    2.842894   -0.000126
     25          6           0        2.797509   -1.980927    0.000022
     26          1           0        4.019554    0.403405    0.000143
     27          9           0        3.587382   -2.130122   -1.075573
     28          9           0        3.586487   -2.130418    1.076233
     29          9           0        1.928193   -2.993940   -0.000452
 ---------------------------------------------------------------------

 SCF Done:  E(RDSDPBEP86) =  -1387.62299899     A.U. after   13 cycles
 E2(DSDPBEP86) =    -0.1704529262D+01 E(DSDPBEP86) =    -0.13893275282565D+04

 The electronic state is 1-A.
 Alpha  occ. eigenvalues -- -103.58453 -25.71256 -25.70871 -25.70870 -20.06549
 Alpha  occ. eigenvalues --  -19.99885 -15.14401 -11.08746 -11.00199 -10.91075
 Alpha  occ. eigenvalues --  -10.90748 -10.88485 -10.86762 -10.85574 -10.85123
 Alpha  occ. eigenvalues --  -10.84584 -10.82849 -10.81865 -10.15951  -7.73630
 Alpha  occ. eigenvalues --   -7.73156  -7.73143  -1.57682  -1.48398  -1.47924
 Alpha  occ. eigenvalues --   -1.35734  -1.25465  -1.17256  -1.09894  -1.03947
 Alpha  occ. eigenvalues --   -0.98784  -0.96702  -0.92591  -0.88109  -0.87020
 Alpha  occ. eigenvalues --   -0.80273  -0.79670  -0.75092  -0.74143  -0.73764
 Alpha  occ. eigenvalues --   -0.72253  -0.71944  -0.68584  -0.64585  -0.64139
 Alpha  occ. eigenvalues --   -0.63983  -0.62401  -0.62068  -0.60627  -0.59119
 Alpha  occ. eigenvalues --   -0.58107  -0.57669  -0.57444  -0.55822  -0.55767
 Alpha  occ. eigenvalues --   -0.55177  -0.53397  -0.53225  -0.50700  -0.50504
 Alpha  occ. eigenvalues --   -0.49608  -0.47985  -0.47553  -0.46229  -0.44792
 Alpha  occ. eigenvalues --   -0.44431  -0.41996  -0.41946  -0.41525  -0.40982
 Alpha  occ. eigenvalues --   -0.33554  -0.30663
 Alpha virt. eigenvalues --    0.00942   0.01678   0.02361   0.02668   0.02774
 Alpha virt. eigenvalues --    0.03155   0.03581   0.03963   0.04719   0.05075
 Alpha virt. eigenvalues --    0.05130   0.05271   0.05869   0.06725   0.07095

 Mulliken charges:
               1
     1  C    0.649186
     2  N   -0.174729
     3  C    0.311468
     4  O   -0.759305
     5  O   -0.448923
     6  C   -0.185279
     7  C   -0.462132
     8  C   -0.957941
     9  C   -0.834667
    10  C    0.799926
    11  C   -0.657269
    12  C    0.319864
    13  C   -0.561953
    14  H   -0.004672
    15  H    0.332120
    16  H    0.332137
    17  H    0.214842
    18  H    0.214863
    19  H    0.278152
    20  H    0.286065
    21  H    0.278139
    22  H    0.479569
    23  Cl  -0.404036
    24  H    0.489414
    25  C    1.179352
    26  H    0.473874
    27  F   -0.406451
    28  F   -0.406446
    29  F   -0.375169
 Sum of Mulliken charges =  -0.00000

 Dipole moment (field-independent basis, Debye):
    X=             -4.3533    Y=              3.1313    Z=             -0.0002  Tot=              5.3625
 Quadrupole moment (field-independent basis, Debye-Ang):
   XX=            -99.6933   YY=           -116.0164   ZZ=           -112.3099
   XY=             -0.8193   XZ=             -0.0006   YZ=              0.0003

 Normal termination of Gaussian 16 at Tue Sep 22 17:32:54 2020.
