 Gaussian 09, Revision E.01,
 Gaussian 09:  ES64L-G09RevE.01 30-Nov-2015

 -------------------------------------------------------------
 # MP2/Gen 5D SCF=Tight INT(grid=ultrafine) maxdisk=3489660928
 -------------------------------------------------------------

 --------------------
 NM3CA.MP2_GTMP2LARGE
 --------------------
 Symbolic Z-matrix:
 Charge =  0 Multiplicity = 1

                         Standard orientation:
 ---------------------------------------------------------------------
 Center     Atomic      Atomic             Coordinates (Angstroms)
 Number     Number       Type             X           Y           Z
 ---------------------------------------------------------------------
      1          6           0        0.141669    0.711592   -0.000223
      2          7           0       -1.243678    0.906635   -0.000379
      3          6           0       -2.223435   -0.055904   -0.000142
      4          8           0       -2.055479   -1.246987   -0.000020
      5          8           0       -3.423192    0.547507   -0.000079
      6          6           0       -4.555987   -0.335876    0.000136
      7          6           0       -5.805153    0.518249   -0.000002
      8          6           0       -7.059396   -0.351514    0.000249
      9          6           0        0.738251   -0.554506   -0.000211
     10          6           0        2.122394   -0.635608   -0.000074
     11          6           0        2.940042    0.489210    0.000045
     12          6           0        2.324693    1.729742    0.000019
     13          6           0        0.944402    1.854752   -0.000113
     14          1           0       -1.577984    1.858908   -0.000328
     15          1           0       -4.502470   -0.976722    0.883534
     16          1           0       -4.502531   -0.977081   -0.883004
     17          1           0       -5.792041    1.168270   -0.879075
     18          1           0       -5.791970    1.168675    0.878769
     19          1           0       -7.096217   -0.995179   -0.881954
     20          1           0       -7.961038    0.262080    0.000069
     21          1           0       -7.096219   -0.994668    0.882824
     22          1           0        0.131468   -1.446688   -0.000304
     23         17           0        3.299907    3.170033    0.000165
     24          1           0        0.497646    2.842894   -0.000126
     25          6           0        2.797509   -1.980927    0.000022
     26          1           0        4.019554    0.403405    0.000143
     27          9           0        3.587382   -2.130122   -1.075573
     28          9           0        3.586487   -2.130418    1.076233
     29          9           0        1.928193   -2.993940   -0.000452
 ---------------------------------------------------------------------

 SCF Done:  E(RHF) =  -1385.31952770     A.U. after   15 cycles
 E2 =    -0.3334864664D+01 EUMP2 =    -0.13886543923662D+04

 The electronic state is 1-A.
 Alpha  occ. eigenvalues -- -104.85765 -26.33968 -26.33578 -26.33576 -20.61701
 Alpha  occ. eigenvalues --  -20.55017 -15.62417 -11.50909 -11.42474 -11.32360
 Alpha  occ. eigenvalues --  -11.32123 -11.29662 -11.28016 -11.26691 -11.26255
 Alpha  occ. eigenvalues --  -11.25710 -11.23729 -11.22830 -10.58202  -8.04979
 Alpha  occ. eigenvalues --   -8.04808  -8.04804  -1.73107  -1.63569  -1.63075
 Alpha  occ. eigenvalues --   -1.48973  -1.38210  -1.28840  -1.20831  -1.14340
 Alpha  occ. eigenvalues --   -1.08870  -1.06740  -1.02240  -0.97576  -0.96019
 Alpha  occ. eigenvalues --   -0.88558  -0.88247  -0.83253  -0.82325  -0.82183
 Alpha  occ. eigenvalues --   -0.80044  -0.79873  -0.75998  -0.71898  -0.71303
 Alpha  occ. eigenvalues --   -0.70995  -0.70946  -0.70664  -0.67760  -0.66541
 Alpha  occ. eigenvalues --   -0.66135  -0.64899  -0.64683  -0.64237  -0.62092
 Alpha  occ. eigenvalues --   -0.61317  -0.59851  -0.59003  -0.56566  -0.56098
 Alpha  occ. eigenvalues --   -0.55605  -0.53735  -0.52830  -0.51508  -0.50145
 Alpha  occ. eigenvalues --   -0.49762  -0.47792  -0.47478  -0.46963  -0.46285
 Alpha  occ. eigenvalues --   -0.36625  -0.33534
 Alpha virt. eigenvalues --    0.03234   0.04052   0.05322   0.05502   0.05840
 Alpha virt. eigenvalues --    0.06179   0.07593   0.07634   0.08376   0.08483
 Alpha virt. eigenvalues --    0.09068   0.09358   0.09971   0.10165   0.10988

 Mulliken charges:
               1
     1  C   -0.203378
     2  N   -0.434497
     3  C    0.448672
     4  O   -0.452781
     5  O   -0.223313
     6  C    0.092367
     7  C    0.263200
     8  C   -0.444572
     9  C   -0.456505
    10  C    0.411116
    11  C   -0.454736
    12  C    0.427812
    13  C   -0.344241
    14  H    0.225651
    15  H    0.102969
    16  H    0.102958
    17  H    0.047661
    18  H    0.047658
    19  H    0.058350
    20  H    0.090394
    21  H    0.058353
    22  H    0.277695
    23  Cl  -0.202210
    24  H    0.133006
    25  C    1.095138
    26  H    0.156480
    27  F   -0.258751
    28  F   -0.258720
    29  F   -0.305777
 Sum of Mulliken charges =  -0.00000

 Dipole moment (field-independent basis, Debye):
    X=             -4.4478    Y=              3.2616    Z=             -0.0002  Tot=              5.5155
 Quadrupole moment (field-independent basis, Debye-Ang):
   XX=           -100.3076   YY=           -116.8413   ZZ=           -112.9344
   XY=             -0.5641   XZ=             -0.0006   YZ=              0.0004

 Normal termination of Gaussian 09 at Mon Dec  9 12:21:13 2019.
