 Gaussian 09, Revision E.01,

 ----------------------------------------------------------------------
 # M062X/6-311+G* SCF=Tight INT(grid=ultrafine) OPT IOP(2/17=4) Empiric
 alDispersion=GD3 SCRF=(SMD,Solvent=h2o) maxdisk=2684354560
 ----------------------------------------------------------------------

 ----------------------------------
 NM2CA.M062X_6-311pGd_opt_water_GD3
 ----------------------------------
 Symbolic Z-matrix:
 Charge =  0 Multiplicity = 1

 SCF Done:  E(RM062X) =  -1268.13023659     A.U. after   15 cycles
 Optimization completed.
    -- Stationary point found.
 Normal termination of Gaussian 09 at Thu Nov 14 16:33:03 2019.
 Gaussian 09:  ES64L-G09RevE.01 30-Nov-2015

 ----------------------------------------------------------------------
 # M062X/6-311+G* SCF=Tight INT(grid=ultrafine) SCRF=(SMD,Solvent=h2o)
 EmpiricalDispersion=GD3 Freq=Noraman maxdisk=2684354560 geom=check gue
 ss=read IOP(2/17=4)
 ----------------------------------------------------------------------

 ----------------------------------
 NM2CA.M062X_6-311pGd_opt_water_GD3
 ----------------------------------
 Structure from the checkpoint file:  "NM2CA.M062X_6-311pGd_opt_water_GD3.chk"
 Charge =  0 Multiplicity = 1

                         Standard orientation:
 ---------------------------------------------------------------------
 Center     Atomic      Atomic             Coordinates (Angstroms)
 Number     Number       Type             X           Y           Z
 ---------------------------------------------------------------------
      1          6           0       -0.516116   -0.938975   -0.046758
      2          7           0       -1.904197   -1.074264   -0.067933
      3          6           0       -2.845546   -0.086442   -0.017060
      4          8           0       -2.627122    1.106854    0.034674
      5          8           0       -4.067186   -0.628701   -0.031912
      6          6           0       -5.175074    0.295740    0.024591
      7          6           0       -6.448985   -0.517741    0.006629
      8          6           0       -7.666556    0.398480    0.061367
      9          6           0        0.141977    0.295145   -0.033076
     10          6           0        1.529076    0.343092   -0.007799
     11          6           0        2.288729   -0.833718   -0.012690
     12          6           0        1.621571   -2.055333   -0.023120
     13          6           0        0.239979   -2.112624   -0.039954
     14          1           0       -2.264853   -2.020889   -0.091532
     15          1           0       -5.114136    0.964952   -0.836050
     16          1           0       -5.088764    0.886068    0.939054
     17          1           0       -6.449621   -1.201248    0.860048
     18          1           0       -6.472685   -1.126560   -0.901258
     19          1           0       -7.663130    1.004443    0.970894
     20          1           0       -8.590578   -0.181769    0.049787
     21          1           0       -7.686948    1.077807   -0.794511
     22          1           0       -0.425770    1.211643   -0.038601
     23          1           0       -0.259890   -3.074732   -0.047649
     24          6           0        3.792358   -0.857489    0.032906
     25          6           0        2.157328    1.716943   -0.015894
     26          1           0        2.185187   -2.979271   -0.019276
     27          9           0        4.354212    0.056508   -0.774439
     28          9           0        4.279224   -2.047782   -0.345588
     29          9           0        4.275026   -0.631059    1.268675
     30          9           0        1.289504    2.667102    0.353769
     31          9           0        2.600841    2.063471   -1.236202
     32          9           0        3.201481    1.808618    0.821304
 ---------------------------------------------------------------------

 SCF Done:  E(RM062X) =  -1268.13023659     A.U. after    2 cycles

 The electronic state is 1-A.
 Alpha  occ. eigenvalues --  -25.28911 -25.28860 -25.28766 -25.28694 -25.28574
 Alpha  occ. eigenvalues --  -25.28352 -19.67752 -19.62294 -14.80287 -10.81713
 Alpha  occ. eigenvalues --  -10.81548 -10.71872 -10.62234 -10.59936 -10.59100
 Alpha  occ. eigenvalues --  -10.59071 -10.57301 -10.57026 -10.56576 -10.53096
 Alpha  occ. eigenvalues --  -10.51914  -1.48488  -1.47974  -1.39038  -1.38674
 Alpha  occ. eigenvalues --   -1.38544  -1.38297  -1.25866  -1.15961  -1.08067
 Alpha  occ. eigenvalues --   -1.00296  -0.91482  -0.90405  -0.88828  -0.83572
 Alpha  occ. eigenvalues --   -0.82175  -0.79333  -0.75357  -0.74865  -0.71395
 Alpha  occ. eigenvalues --   -0.70822  -0.70572  -0.70064  -0.69661  -0.68579
 Alpha  occ. eigenvalues --   -0.67224  -0.66154  -0.63668  -0.60280  -0.59410
 Alpha  occ. eigenvalues --   -0.59269  -0.59164  -0.58481  -0.58300  -0.57118
 Alpha  occ. eigenvalues --   -0.56163  -0.54928  -0.54624  -0.53873  -0.53628
 Alpha  occ. eigenvalues --   -0.53219  -0.52939  -0.52420  -0.52214  -0.51393
 Alpha  occ. eigenvalues --   -0.50588  -0.49549  -0.48926  -0.46314  -0.46073
 Alpha  occ. eigenvalues --   -0.45159  -0.43849  -0.42736  -0.40987  -0.40162
 Alpha  occ. eigenvalues --   -0.40060  -0.38227  -0.38125  -0.34143  -0.30071
 Alpha virt. eigenvalues --   -0.02340  -0.00641   0.01244   0.02404   0.02676
 Alpha virt. eigenvalues --    0.03183   0.03710   0.03966   0.04473   0.04823
 Alpha virt. eigenvalues --    0.05274   0.05594   0.06486   0.06674   0.06982

 Mulliken charges:
               1
     1  C   -1.055763
     2  N   -0.491812
     3  C    0.172247
     4  O   -0.410365
     5  O   -0.080955
     6  C   -0.327480
     7  C   -0.161073
     8  C   -1.068862
     9  C    0.269472
    10  C   -0.453578
    11  C   -0.885364
    12  C   -0.188092
    13  C   -0.126120
    14  H    0.487053
    15  H    0.290711
    16  H    0.290667
    17  H    0.271144
    18  H    0.271117
    19  H    0.272526
    20  H    0.284150
    21  H    0.272440
    22  H    0.343030
    23  H    0.307543
    24  C    0.898112
    25  C    1.017055
    26  H    0.325966
    27  F   -0.094980
    28  F   -0.118167
    29  F   -0.060137
    30  F   -0.114300
    31  F   -0.050002
    32  F   -0.086185
 Sum of Mulliken charges =  -0.00000

 Dipole moment (field-independent basis, Debye):
    X=             -7.8978    Y=             -6.7019    Z=             -0.1640  Tot=             10.3594
 Quadrupole moment (field-independent basis, Debye-Ang):
   XX=           -115.7423   YY=           -114.2634   ZZ=           -122.1844
   XY=              1.7907   XZ=             -0.1335   YZ=              0.1886

  Exact polarizability: 269.659  -7.592 221.193   0.594   0.978 144.067
 Approx polarizability: 217.140  -2.653 197.194   0.665   0.944 132.341

                      1                      2                      3
                      A                      A                      A
 Frequencies --     13.6967                25.8091                55.6580
 Red. masses --      4.9865                 4.8128                 6.7969
 Frc consts  --      0.0006                 0.0019                 0.0124
 IR Inten    --      4.1054                 1.8320                 0.2833

                      4                      5                      6
                      A                      A                      A
 Frequencies --     57.8786                73.8140                87.5625
 Red. masses --      5.5311                 4.6831                 2.4335
 Frc consts  --      0.0109                 0.0150                 0.0110
 IR Inten    --      0.1611                 1.3518                 5.4869

                      7                      8                      9
                      A                      A                      A
 Frequencies --     95.0467                99.2449               132.6144
 Red. masses --     18.6555                 5.0922                 6.1699
 Frc consts  --      0.0993                 0.0296                 0.0639
 IR Inten    --      0.0947                 0.6163                 1.8645

                     10                     11                     12
                      A                      A                      A
 Frequencies --    138.0333               170.6306               173.7678
 Red. masses --      7.1788                 3.4538                14.2110
 Frc consts  --      0.0806                 0.0592                 0.2528
 IR Inten    --      0.8053                 7.1534                 0.6104

                     13                     14                     15
                      A                      A                      A
 Frequencies --    205.9611               234.6804               239.9780
 Red. masses --      8.2574                 7.0452                 4.5073
 Frc consts  --      0.2064                 0.2286                 0.1529
 IR Inten    --      0.0900                 9.3210                 0.2986

                     16                     17                     18
                      A                      A                      A
 Frequencies --    245.2539               263.8861               318.1307
 Red. masses --      1.2611                 8.2364                 7.4297
 Frc consts  --      0.0447                 0.3379                 0.4430
 IR Inten    --      0.0761                 1.3731                 1.0921

                     19                     20                     21
                      A                      A                      A
 Frequencies --    340.9630               355.6603               388.3086
 Red. masses --     15.3193                 4.7914                 7.9157
 Frc consts  --      1.0493                 0.3571                 0.7032
 IR Inten    --      0.4620                23.9895                 4.5596

                     22                     23                     24
                      A                      A                      A
 Frequencies --    397.1180               416.9256               465.0679
 Red. masses --      6.3156                 4.8828                 7.5026
 Frc consts  --      0.5868                 0.5001                 0.9561
 IR Inten    --     31.7066                 3.6381                 7.2522

                     25                     26                     27
                      A                      A                      A
 Frequencies --    479.2857               505.6652               540.3529
 Red. masses --      6.3855                 6.6511                11.0604
 Frc consts  --      0.8642                 1.0020                 1.9027
 IR Inten    --      2.4994                27.7097                 7.5535

                     28                     29                     30
                      A                      A                      A
 Frequencies --    573.1334               575.3030               603.9828
 Red. masses --     14.3708                 1.1247                 5.3907
 Frc consts  --      2.7813                 0.2193                 1.1586
 IR Inten    --      1.5233               170.5630                33.2427

                     31                     32                     33
                      A                      A                      A
 Frequencies --    622.0686               655.6917               660.9197
 Red. masses --      8.8394                 5.6207                 8.0181
 Frc consts  --      2.0153                 1.4238                 2.0636
 IR Inten    --      0.7052                 2.6198                17.0945

                     34                     35                     36
                      A                      A                      A
 Frequencies --    680.8971               761.3360               768.3219
 Red. masses --      9.5958                 4.6884                 1.1586
 Frc consts  --      2.6212                 1.6011                 0.4030
 IR Inten    --     21.3600                 3.6998                21.7050

                     37                     38                     39
                      A                      A                      A
 Frequencies --    771.0825               775.3036               787.1828
 Red. masses --      9.3021                11.2716                 6.3359
 Frc consts  --      3.2586                 3.9919                 2.3132
 IR Inten    --      6.7222                 8.6638                33.6917

                     40                     41                     42
                      A                      A                      A
 Frequencies --    800.6979               867.5191               910.6825
 Red. masses --      9.0791                 1.4608                 1.1481
 Frc consts  --      3.4295                 0.6477                 0.5610
 IR Inten    --      3.9541                91.0830                 4.5711

                     43                     44                     45
                      A                      A                      A
 Frequencies --    917.3368               929.3219               954.3039
 Red. masses --      1.5136                 1.8563                 4.1833
 Frc consts  --      0.7505                 0.9445                 2.2446
 IR Inten    --     58.1612                 4.1167                60.0364

                     46                     47                     48
                      A                      A                      A
 Frequencies --   1003.0468              1014.1357              1046.4989
 Red. masses --      1.3408                 7.7170                 6.6929
 Frc consts  --      0.7948                 4.6762                 4.3186
 IR Inten    --      3.8628                28.3741               110.5996

                     49                     50                     51
                      A                      A                      A
 Frequencies --   1075.5140              1110.4250              1127.1224
 Red. masses --      2.4284                 7.8974                 3.3061
 Frc consts  --      1.6550                 5.7374                 2.4746
 IR Inten    --      5.3705               187.6646               397.4318

                     52                     53                     54
                      A                      A                      A
 Frequencies --   1143.4038              1154.9402              1160.8768
 Red. masses --     10.2644                 9.0215                 5.1467
 Frc consts  --      7.9065                 7.0901                 4.0865
 IR Inten    --    108.9792               653.2161               399.3581

                     55                     56                     57
                      A                      A                      A
 Frequencies --   1165.9417              1192.0387              1199.1545
 Red. masses --      2.5155                 1.6480                 9.7293
 Frc consts  --      2.0148                 1.3797                 8.2429
 IR Inten    --     28.9989                 1.4688               357.3687

                     58                     59                     60
                      A                      A                      A
 Frequencies --   1210.3376              1257.1144              1283.7836
 Red. masses --      1.5837                 3.0603                 2.6153
 Frc consts  --      1.3669                 2.8494                 2.5396
 IR Inten    --    566.6850              1107.7695                80.7324

                     61                     62                     63
                      A                      A                      A
 Frequencies --   1289.6673              1314.2349              1325.6154
 Red. masses --      1.1818                 2.5154                 2.5377
 Frc consts  --      1.1581                 2.5598                 2.6274
 IR Inten    --      2.9469               312.6997               283.7606

                     64                     65                     66
                      A                      A                      A
 Frequencies --   1337.7762              1346.7182              1348.8336
 Red. masses --      1.0683                 2.4763                 1.9245
 Frc consts  --      1.1265                 2.6461                 2.0629
 IR Inten    --      1.5119               530.6149                91.6124

                     67                     68                     69
                      A                      A                      A
 Frequencies --   1374.7619              1419.9193              1443.3888
 Red. masses --      4.2697                 1.2741                 1.5157
 Frc consts  --      4.7545                 1.5135                 1.8606
 IR Inten    --    280.4529                 8.8581                11.4648

                     70                     71                     72
                      A                      A                      A
 Frequencies --   1477.6910              1486.5205              1502.1679
 Red. masses --      4.4184                 1.0627                 1.0375
 Frc consts  --      5.6844                 1.3836                 1.3794
 IR Inten    --    362.2759                 0.3966                13.8005

                     73                     74                     75
                      A                      A                      A
 Frequencies --   1510.3258              1523.8670              1564.3726
 Red. masses --      1.0939                 1.0972                 2.3728
 Frc consts  --      1.4702                 1.5012                 3.4213
 IR Inten    --      3.2313                27.1968                36.2837

                     76                     77                     78
                      A                      A                      A
 Frequencies --   1595.5651              1665.2977              1686.3021
 Red. masses --      2.5578                 5.8988                 5.1590
 Frc consts  --      3.8367                 9.6382                 8.6435
 IR Inten    --    699.4636               302.1888                77.5290

                     79                     80                     81
                      A                      A                      A
 Frequencies --   1748.6196              3070.9229              3081.0267
 Red. masses --      9.6142                 1.0371                 1.0603
 Frc consts  --     17.3202                 5.7624                 5.9300
 IR Inten    --    809.6091                30.6963                25.2413

                     82                     83                     84
                      A                      A                      A
 Frequencies --   3098.1467              3116.9402              3139.2715
 Red. masses --      1.0570                 1.1043                 1.1049
 Frc consts  --      5.9775                 6.3211                 6.4153
 IR Inten    --     48.3981                 1.2276                34.2030

                     85                     86                     87
                      A                      A                      A
 Frequencies --   3150.0667              3155.8570              3224.7605
 Red. masses --      1.1024                 1.1102                 1.0927
 Frc consts  --      6.4449                 6.5147                 6.6949
 IR Inten    --     41.3110                80.5323                 1.6146

                     88                     89                     90
                      A                      A                      A
 Frequencies --   3253.7782              3297.1006              3603.4728
 Red. masses --      1.0941                 1.0918                 1.0786
 Frc consts  --      6.8248                 6.9931                 8.2516
 IR Inten    --      0.4507                28.9607               174.4079

 - Thermochemistry -
 -------------------
 Temperature   298.150 Kelvin.  Pressure   1.00000 Atm.
 Atom     1 has atomic number  6 and mass  12.00000

 Molecular mass:   315.06940 amu.
 Principal axes and moments of inertia in atomic units:
                           1         2         3
     Eigenvalues --  2526.70674********************
           X            0.99999  -0.00334  -0.00055
           Y            0.00334   0.99999   0.00138
           Z            0.00055  -0.00139   1.00000
 This molecule is an asymmetric top.
 Rotational symmetry number  1.
 Warning -- assumption of classical behavior for rotation
           may cause significant error
 Rotational temperatures (Kelvin)      0.03428     0.00573     0.00510
 Rotational constants (GHZ):           0.71427     0.11939     0.10632
 Zero-point vibrational energy     600725.1 (Joules/Mol)
                                  143.57676 (Kcal/Mol)
 Warning -- explicit consideration of  30 degrees of freedom as
           vibrations may cause significant error
 Vibrational temperatures:     19.71    37.13    80.08    83.27   106.20
          (Kelvin)            125.98   136.75   142.79   190.80   198.60
                              245.50   250.01   296.33   337.65   345.27
                              352.87   379.67   457.72   490.57   511.72
                              558.69   571.36   599.86   669.13   689.58
                              727.54   777.45   824.61   827.73   869.00
                              895.02   943.39   950.91   979.66  1095.39
                             1105.44  1109.41  1115.49  1132.58  1152.02
                             1248.16  1310.27  1319.84  1337.09  1373.03
                             1443.16  1459.11  1505.68  1547.42  1597.65
                             1621.68  1645.10  1661.70  1670.24  1677.53
                             1715.08  1725.31  1741.40  1808.71  1847.08
                             1855.54  1890.89  1907.26  1924.76  1937.62
                             1940.67  1977.97  2042.94  2076.71  2126.07
                             2138.77  2161.28  2173.02  2192.50  2250.78
                             2295.66  2395.99  2426.21  2515.87  4418.37
                             4432.90  4457.54  4484.58  4516.71  4532.24
                             4540.57  4639.71  4681.46  4743.79  5184.59

 Zero-point correction=                           0.228804 (Hartree/Particle)
 Thermal correction to Energy=                    0.248387
 Thermal correction to Enthalpy=                  0.249331
 Thermal correction to Gibbs Free Energy=         0.177899
 Sum of electronic and zero-point Energies=          -1267.901432
 Sum of electronic and thermal Energies=             -1267.881850
 Sum of electronic and thermal Enthalpies=           -1267.880905
 Sum of electronic and thermal Free Energies=        -1267.952338

                     E (Thermal)             CV                S
                      KCal/Mol        Cal/Mol-Kelvin    Cal/Mol-Kelvin
 Total                  155.865             71.330            150.342
 Electronic               0.000              0.000              0.000
 Translational            0.889              2.981             43.139
 Rotational               0.889              2.981             34.827
 Vibrational            154.088             65.369             72.377
 Vibration     1          0.593              1.986              7.386
 Vibration     2          0.593              1.985              6.128
 Vibration     3          0.596              1.975              4.606
 Vibration     4          0.596              1.974              4.528
 Vibration     5          0.599              1.966              4.049
 Vibration     6          0.601              1.958              3.714
 Vibration     7          0.603              1.953              3.553
 Vibration     8          0.604              1.950              3.469
 Vibration     9          0.613              1.921              2.908
 Vibration    10          0.614              1.915              2.831
 Vibration    11          0.626              1.879              2.429
 Vibration    12          0.627              1.875              2.394
 Vibration    13          0.640              1.831              2.079
 Vibration    14          0.654              1.788              1.843
 Vibration    15          0.657              1.779              1.803
 Vibration    16          0.660              1.771              1.764
 Vibration    17          0.670              1.739              1.636
 Vibration    18          0.705              1.639              1.320
 Vibration    19          0.720              1.594              1.208
 Vibration    20          0.731              1.564              1.141
 Vibration    21          0.756              1.495              1.007
 Vibration    22          0.764              1.476              0.973
 Vibration    23          0.780              1.433              0.902
 Vibration    24          0.823              1.328              0.751
 Vibration    25          0.836              1.296              0.712
 Vibration    26          0.861              1.237              0.644
 Vibration    27          0.895              1.161              0.565
 Vibration    28          0.929              1.089              0.498
 Vibration    29          0.932              1.085              0.494
 Vibration    30          0.962              1.023              0.443

 Optimization completed.
    -- Stationary point found.
 Normal termination of Gaussian 09 at Thu Nov 14 17:22:43 2019.
