 Gaussian 09, Revision E.01,

 ----------------------------------------------------------------------
 # M062X/6-311+G* SCF=Tight INT(grid=ultrafine) OPT IOP(2/17=4) Empiric
 alDispersion=GD3 maxdisk=2684354560
 ----------------------------------------------------------------------

 -------------------------------
 NM2CA_c2.M062X_6-311pGd_opt_GD3
 -------------------------------
 Symbolic Z-matrix:
 Charge =  0 Multiplicity = 1

 SCF Done:  E(RM062X) =  -1268.12135168     A.U. after   16 cycles
 Optimization completed.
    -- Stationary point found.
 Normal termination of Gaussian 09 at Thu Nov 14 16:55:02 2019.
 Gaussian 09:  ES64L-G09RevE.01 30-Nov-2015

 ----------------------------------------------------------------------
 # M062X/6-311+G* SCF=Tight INT(grid=ultrafine) EmpiricalDispersion=GD3
  Freq=Noraman maxdisk=2684354560 geom=check guess=read IOP(2/17=4)
 ----------------------------------------------------------------------

 -------------------------------
 NM2CA_c2.M062X_6-311pGd_opt_GD3
 -------------------------------
 Structure from the checkpoint file:  "NM2CA_c2.M062X_6-311pGd_opt_GD3.chk"
 Charge =  0 Multiplicity = 1

                         Standard orientation:
 ---------------------------------------------------------------------
 Center     Atomic      Atomic             Coordinates (Angstroms)
 Number     Number       Type             X           Y           Z
 ---------------------------------------------------------------------
      1          6           0        0.587052   -0.076126   -0.011015
      2          7           0        1.913396    0.359076   -0.010192
      3          6           0        3.046504   -0.419858   -0.011510
      4          8           0        3.084623   -1.622112   -0.020585
      5          8           0        4.122192    0.381248   -0.001066
      6          6           0        5.392527   -0.290741   -0.001189
      7          6           0        6.472745    0.768735    0.019563
      8          6           0        7.859804    0.131831    0.019641
      9          6           0       -0.406478    0.909672    0.004278
     10          6           0       -1.749847    0.577266    0.008819
     11          6           0       -2.134341   -0.770793   -0.013683
     12          6           0       -1.140942   -1.741803   -0.023384
     13          6           0        0.209247   -1.418204   -0.023477
     14          1           0        2.076831    1.355231    0.000109
     15          1           0        5.457188   -0.919534   -0.892478
     16          1           0        5.445531   -0.942216    0.874392
     17          1           0        6.340491    1.394684    0.906164
     18          1           0        6.351368    1.418199   -0.851548
     19          1           0        8.003276   -0.507075    0.894368
     20          1           0        8.639828    0.893846    0.035039
     21          1           0        8.014449   -0.482885   -0.870373
     22          1           0       -0.121226    1.954989    0.021093
     23          1           0        0.956515   -2.196507   -0.033799
     24          6           0       -3.572564   -1.227470    0.012105
     25          6           0       -2.742469    1.720264   -0.003356
     26          1           0       -1.424638   -2.786274   -0.038587
     27          9           0       -4.351672   -0.508781   -0.802923
     28          9           0       -4.102036   -1.157376    1.241151
     29          9           0       -3.678381   -2.507136   -0.377023
     30          9           0       -2.161895    2.870000    0.377165
     31          9           0       -3.766559    1.511188    0.826125
     32          9           0       -3.241161    1.931471   -1.226783
 ---------------------------------------------------------------------

 SCF Done:  E(RM062X) =  -1268.12135168     A.U. after    2 cycles

 The electronic state is 1-A.
 Alpha  occ. eigenvalues --  -25.28786 -25.28463 -25.28227 -25.28197 -25.27987
 Alpha  occ. eigenvalues --  -25.27658 -19.68936 -19.62950 -14.81955 -10.81649
 Alpha  occ. eigenvalues --  -10.81125 -10.72553 -10.63489 -10.61163 -10.60745
 Alpha  occ. eigenvalues --  -10.59712 -10.58789 -10.58380 -10.57400 -10.55454
 Alpha  occ. eigenvalues --  -10.54370  -1.48220  -1.47508  -1.38768  -1.38412
 Alpha  occ. eigenvalues --   -1.38098  -1.37780  -1.27063  -1.17156  -1.09548
 Alpha  occ. eigenvalues --   -1.01156  -0.92567  -0.91252  -0.90333  -0.84277
 Alpha  occ. eigenvalues --   -0.82371  -0.80389  -0.76135  -0.75240  -0.72052
 Alpha  occ. eigenvalues --   -0.70709  -0.70492  -0.70160  -0.69782  -0.69641
 Alpha  occ. eigenvalues --   -0.68821  -0.66221  -0.65492  -0.60936  -0.60919
 Alpha  occ. eigenvalues --   -0.58836  -0.58753  -0.58115  -0.57950  -0.57710
 Alpha  occ. eigenvalues --   -0.56271  -0.55760  -0.55458  -0.54527  -0.53746
 Alpha  occ. eigenvalues --   -0.53310  -0.52879  -0.52521  -0.52024  -0.51552
 Alpha  occ. eigenvalues --   -0.51212  -0.50519  -0.50098  -0.47791  -0.47418
 Alpha  occ. eigenvalues --   -0.45918  -0.45067  -0.44842  -0.42616  -0.42369
 Alpha  occ. eigenvalues --   -0.41440  -0.39698  -0.38631  -0.35158  -0.31164
 Alpha virt. eigenvalues --   -0.02862  -0.01837  -0.00592   0.01049   0.01674
 Alpha virt. eigenvalues --    0.02525   0.02734   0.02972   0.04090   0.04204
 Alpha virt. eigenvalues --    0.04706   0.04846   0.05885   0.06113   0.06422

 Mulliken charges:
               1
     1  C   -0.673105
     2  N   -0.490770
     3  C    0.001803
     4  O   -0.276980
     5  O   -0.052530
     6  C   -0.341005
     7  C   -0.134841
     8  C   -1.027393
     9  C   -0.479622
    10  C   -0.680688
    11  C   -0.535443
    12  C    0.074820
    13  C    0.018954
    14  H    0.406683
    15  H    0.269007
    16  H    0.268807
    17  H    0.259903
    18  H    0.259784
    19  H    0.260131
    20  H    0.275346
    21  H    0.260115
    22  H    0.269425
    23  H    0.311212
    24  C    0.767549
    25  C    1.095793
    26  H    0.286791
    27  F   -0.062335
    28  F   -0.031426
    29  F   -0.112503
    30  F   -0.114220
    31  F   -0.049884
    32  F   -0.023379
 Sum of Mulliken charges =  -0.00000

 Dipole moment (field-independent basis, Debye):
    X=              6.4756    Y=              1.0838    Z=              0.0042  Tot=              6.5657
 Quadrupole moment (field-independent basis, Debye-Ang):
   XX=           -116.2721   YY=           -121.2107   ZZ=           -121.8993
   XY=              7.1519   XZ=              0.1571   YZ=              0.0848

  Exact polarizability: 220.426   1.740 148.413  -0.082   0.298  99.867
 Approx polarizability: 214.066   1.605 197.786  -0.147   0.582 132.143

                      1                      2                      3
                      A                      A                      A
 Frequencies --     15.8241                23.4173                53.4449
 Red. masses --      2.9830                 3.9794                 6.9248
 Frc consts  --      0.0004                 0.0013                 0.0117
 IR Inten    --      1.2673                 0.3706                 0.2649

                      4                      5                      6
                      A                      A                      A
 Frequencies --     57.3904                70.7834                71.2683
 Red. masses --      5.1246                 5.0576                 3.5239
 Frc consts  --      0.0099                 0.0149                 0.0105
 IR Inten    --      0.1677                 0.7729                 3.1074

                      7                      8                      9
                      A                      A                      A
 Frequencies --     93.1637               101.5674               138.1317
 Red. masses --     18.4911                 5.0313                 7.3010
 Frc consts  --      0.0946                 0.0306                 0.0821
 IR Inten    --      0.0433                 0.6202                 0.6569

                     10                     11                     12
                      A                      A                      A
 Frequencies --    140.9137               164.9906               175.0152
 Red. masses --      6.1053                13.2501                 3.5720
 Frc consts  --      0.0714                 0.2125                 0.0645
 IR Inten    --      2.6724                 0.1392                 2.8022

                     13                     14                     15
                      A                      A                      A
 Frequencies --    200.9542               233.4554               236.9114
 Red. masses --      8.3986                 1.5111                 2.7642
 Frc consts  --      0.1998                 0.0485                 0.0914
 IR Inten    --      0.1393                 0.3899                 1.3359

                     16                     17                     18
                      A                      A                      A
 Frequencies --    243.3053               257.0944               318.0284
 Red. masses --      6.3421                14.1280                 7.3722
 Frc consts  --      0.2212                 0.5502                 0.4393
 IR Inten    --      0.4154                 2.1604                 0.2218

                     19                     20                     21
                      A                      A                      A
 Frequencies --    340.6757               346.5368               357.3949
 Red. masses --     10.3380                 5.9837                 5.9116
 Frc consts  --      0.7069                 0.4234                 0.4449
 IR Inten    --      2.1470                 6.6762                12.8007

                     22                     23                     24
                      A                      A                      A
 Frequencies --    423.7156               427.6571               473.0554
 Red. masses --      5.8612                 6.6022                 7.3998
 Frc consts  --      0.6200                 0.7114                 0.9757
 IR Inten    --      7.8766                 9.2456                 1.9541

                     25                     26                     27
                      A                      A                      A
 Frequencies --    483.3507               505.6348               540.4003
 Red. masses --      6.1866                 6.5038                11.2115
 Frc consts  --      0.8516                 0.9797                 1.9291
 IR Inten    --      1.0054                16.8378                 2.2158

                     28                     29                     30
                      A                      A                      A
 Frequencies --    557.1837               576.1600               609.0970
 Red. masses --      1.1338                15.1364                 5.0242
 Frc consts  --      0.2074                 2.9605                 1.0982
 IR Inten    --     70.5443                 1.4258                21.4850

                     31                     32                     33
                      A                      A                      A
 Frequencies --    625.3194               655.2186               669.1434
 Red. masses --      8.9772                 6.1426                 7.7540
 Frc consts  --      2.0682                 1.5537                 2.0456
 IR Inten    --      0.8342                 0.6473                 4.6100

                     34                     35                     36
                      A                      A                      A
 Frequencies --    679.0552               761.5411               764.6658
 Red. masses --      9.0213                 1.1171                 4.2792
 Frc consts  --      2.4509                 0.3817                 1.4742
 IR Inten    --     12.0759                 5.1106                 3.6734

                     37                     38                     39
                      A                      A                      A
 Frequencies --    767.2080               785.1327               790.0015
 Red. masses --     10.4848                11.3441                 8.0915
 Frc consts  --      3.6361                 4.1201                 2.9753
 IR Inten    --      5.8540                 5.7439                15.2640

                     40                     41                     42
                      A                      A                      A
 Frequencies --    815.1775               880.7576               901.6289
 Red. masses --      8.7456                 1.4092                 1.1547
 Frc consts  --      3.4241                 0.6441                 0.5531
 IR Inten    --      4.7236                38.4353                 2.4683

                     43                     44                     45
                      A                      A                      A
 Frequencies --    909.7418               921.2820               947.1503
 Red. masses --      1.5567                 2.3388                 2.7758
 Frc consts  --      0.7591                 1.1696                 1.4671
 IR Inten    --     27.4872                11.2518                25.7052

                     46                     47                     48
                      A                      A                      A
 Frequencies --   1012.1022              1028.6402              1052.0530
 Red. masses --      1.3328                 7.2203                 6.3427
 Frc consts  --      0.8044                 4.5013                 4.1362
 IR Inten    --      0.3005                20.8986                61.8300

                     49                     50                     51
                      A                      A                      A
 Frequencies --   1075.9240              1125.9535              1139.7259
 Red. masses --      2.5514                 6.2505                 3.3003
 Frc consts  --      1.7402                 4.6688                 2.5258
 IR Inten    --     11.8717                13.7210               240.2084

                     52                     53                     54
                      A                      A                      A
 Frequencies --   1168.5387              1174.3495              1196.5078
 Red. masses --      2.4574                 2.3117                 2.4533
 Frc consts  --      1.9770                 1.8783                 2.0693
 IR Inten    --      5.6885                75.8829                 7.8284

                     55                     56                     57
                      A                      A                      A
 Frequencies --   1196.5871              1219.9295              1234.0691
 Red. masses --      3.6923                 2.7385                 7.9183
 Frc consts  --      3.1148                 2.4012                 7.1049
 IR Inten    --     17.9638               288.0925               434.1558

                     58                     59                     60
                      A                      A                      A
 Frequencies --   1242.3086              1261.0513              1291.6626
 Red. masses --      6.0890                 2.4651                 3.8853
 Frc consts  --      5.5368                 2.3097                 3.8192
 IR Inten    --    433.7988               438.2638               552.6500

                     61                     62                     63
                      A                      A                      A
 Frequencies --   1293.3045              1322.8904              1339.5508
 Red. masses --      1.1853                 2.1551                 1.0677
 Frc consts  --      1.1681                 2.2221                 1.1288
 IR Inten    --      1.9905               141.0887                 0.4071

                     64                     65                     66
                      A                      A                      A
 Frequencies --   1346.5111              1350.0961              1358.0397
 Red. masses --      2.2447                 2.1504                 2.7072
 Frc consts  --      2.3979                 2.3094                 2.9417
 IR Inten    --     48.4446               140.4210                63.7119

                     67                     68                     69
                      A                      A                      A
 Frequencies --   1377.5715              1432.3834              1441.3904
 Red. masses --      4.5493                 1.2802                 1.5965
 Frc consts  --      5.0866                 1.5475                 1.9542
 IR Inten    --    487.5630                 3.2904                42.6034

                     70                     71                     72
                      A                      A                      A
 Frequencies --   1465.6975              1510.2680              1524.6212
 Red. masses --      3.1084                 1.0621                 1.0423
 Frc consts  --      3.9344                 1.4273                 1.4275
 IR Inten    --     47.2901                 1.6475                 9.3820

                     73                     74                     75
                      A                      A                      A
 Frequencies --   1525.2688              1538.1691              1578.3149
 Red. masses --      1.0759                 1.0967                 3.0249
 Frc consts  --      1.4747                 1.5288                 4.4396
 IR Inten    --      2.4063                36.9796                45.5671

                     76                     77                     78
                      A                      A                      A
 Frequencies --   1594.5096              1665.5971              1697.8627
 Red. masses --      2.6172                 5.4969                 6.3268
 Frc consts  --      3.9204                 8.9847                10.7459
 IR Inten    --    775.6892                11.2874               107.1709

                     79                     80                     81
                      A                      A                      A
 Frequencies --   1852.1374              3071.9251              3080.1329
 Red. masses --     10.5578                 1.0381                 1.0596
 Frc consts  --     21.3389                 5.7716                 5.9230
 IR Inten    --    298.8509                17.9638                 5.5151

                     82                     83                     84
                      A                      A                      A
 Frequencies --   3091.0374              3112.9239              3134.6528
 Red. masses --      1.0574                 1.1044                 1.1062
 Frc consts  --      5.9527                 6.3056                 6.4043
 IR Inten    --     34.1717                 0.0280                 0.6899

                     85                     86                     87
                      A                      A                      A
 Frequencies --   3148.9604              3152.9857              3229.4137
 Red. masses --      1.1069                 1.1015                 1.0911
 Frc consts  --      6.4669                 6.4516                 6.7046
 IR Inten    --     55.9147                23.2550                 2.7009

                     88                     89                     90
                      A                      A                      A
 Frequencies --   3246.9875              3287.7074              3655.4402
 Red. masses --      1.0912                 1.0934                 1.0772
 Frc consts  --      6.7780                 6.9634                 8.4810
 IR Inten    --      0.1843                 8.3920                49.3406

 - Thermochemistry -
 -------------------
 Temperature   298.150 Kelvin.  Pressure   1.00000 Atm.
 Atom     1 has atomic number  6 and mass  12.00000

 Molecular mass:   315.06940 amu.
 Principal axes and moments of inertia in atomic units:
                           1         2         3
     Eigenvalues --  2610.49443********************
           X            0.99999   0.00352   0.00021
           Y           -0.00352   0.99999   0.00073
           Z           -0.00021  -0.00073   1.00000
 This molecule is an asymmetric top.
 Rotational symmetry number  1.
 Warning -- assumption of classical behavior for rotation
           may cause significant error
 Rotational temperatures (Kelvin)      0.03318     0.00544     0.00484
 Rotational constants (GHZ):           0.69134     0.11328     0.10095
 Zero-point vibrational energy     603846.8 (Joules/Mol)
                                  144.32285 (Kcal/Mol)
 Warning -- explicit consideration of  30 degrees of freedom as
           vibrations may cause significant error
 Vibrational temperatures:     22.77    33.69    76.90    82.57   101.84
          (Kelvin)            102.54   134.04   146.13   198.74   202.74
                              237.38   251.81   289.13   335.89   340.86
                              350.06   369.90   457.57   490.16   498.59
                              514.21   609.63   615.30   680.62   695.43
                              727.49   777.51   801.66   828.96   876.35
                              899.69   942.71   962.75   977.01  1095.69
                             1100.18  1103.84  1129.63  1136.63  1172.86
                             1267.21  1297.24  1308.91  1325.52  1362.74
                             1456.19  1479.98  1513.67  1548.01  1619.99
                             1639.81  1681.26  1689.62  1721.51  1721.62
                             1755.20  1775.55  1787.40  1814.37  1858.41
                             1860.77  1903.34  1927.31  1937.33  1942.48
                             1953.91  1982.02  2060.88  2073.84  2108.81
                             2172.94  2193.59  2194.52  2213.08  2270.84
                             2294.14  2396.42  2442.84  2664.81  4419.81
                             4431.62  4447.31  4478.80  4510.06  4530.65
                             4536.44  4646.40  4671.69  4730.27  5259.36

 Zero-point correction=                           0.229993 (Hartree/Particle)
 Thermal correction to Energy=                    0.249610
 Thermal correction to Enthalpy=                  0.250555
 Thermal correction to Gibbs Free Energy=         0.178823
 Sum of electronic and zero-point Energies=          -1267.891359
 Sum of electronic and thermal Energies=             -1267.871741
 Sum of electronic and thermal Enthalpies=           -1267.870797
 Sum of electronic and thermal Free Energies=        -1267.942529

                     E (Thermal)             CV                S
                      KCal/Mol        Cal/Mol-Kelvin    Cal/Mol-Kelvin
 Total                  156.633             71.087            150.973
 Electronic               0.000              0.000              0.000
 Translational            0.889              2.981             43.139
 Rotational               0.889              2.981             34.963
 Vibrational            154.855             65.125             72.871
 Vibration     1          0.593              1.986              7.099
 Vibration     2          0.593              1.985              6.321
 Vibration     3          0.596              1.976              4.686
 Vibration     4          0.596              1.975              4.545
 Vibration     5          0.598              1.968              4.131
 Vibration     6          0.598              1.968              4.118
 Vibration     7          0.602              1.954              3.593
 Vibration     8          0.604              1.948              3.424
 Vibration     9          0.614              1.915              2.830
 Vibration    10          0.615              1.912              2.791
 Vibration    11          0.623              1.885              2.492
 Vibration    12          0.627              1.873              2.381
 Vibration    13          0.638              1.839              2.124
 Vibration    14          0.654              1.790              1.852
 Vibration    15          0.656              1.784              1.826
 Vibration    16          0.659              1.774              1.779
 Vibration    17          0.667              1.751              1.681
 Vibration    18          0.704              1.639              1.320
 Vibration    19          0.720              1.594              1.209
 Vibration    20          0.725              1.582              1.182
 Vibration    21          0.733              1.560              1.133
 Vibration    22          0.786              1.419              0.879
 Vibration    23          0.789              1.410              0.866
 Vibration    24          0.830              1.310              0.729
 Vibration    25          0.840              1.287              0.701
 Vibration    26          0.861              1.238              0.644
 Vibration    27          0.895              1.161              0.564
 Vibration    28          0.913              1.124              0.529
 Vibration    29          0.933              1.083              0.493
 Vibration    30          0.968              1.013              0.434

 Optimization completed.
    -- Stationary point found.
 Normal termination of Gaussian 09 at Thu Nov 14 17:41:28 2019.
