 Gaussian 16, Revision C.01,
 Gaussian 16:  ES64L-G16RevC.01  3-Jul-2019

 ---------------------------------------------------------------------
 # DSDPBEP86/AUG-cc-PVTZ SCF=Tight INT(grid=ultrafine) MaxDisk=60000MB
 ---------------------------------------------------------------------

 ---------------------------
 NM2CA.DSDPBEP86_AUG-cc-PVTZ
 ---------------------------
 Symbolic Z-matrix:
 Charge =  0 Multiplicity = 1

                         Standard orientation:
 ---------------------------------------------------------------------
 Center     Atomic      Atomic             Coordinates (Angstroms)
 Number     Number       Type             X           Y           Z
 ---------------------------------------------------------------------
      1          6           0        0.510894   -0.952751   -0.013891
      2          7           0        1.900103   -1.087861   -0.019826
      3          6           0        2.841286   -0.084827   -0.005673
      4          8           0        2.622845    1.097420    0.006315
      5          8           0        4.062995   -0.639152   -0.007610
      6          6           0        5.160562    0.288851    0.004933
      7          6           0        6.442322   -0.515381    0.002094
      8          6           0        7.661199    0.403209    0.014100
      9          6           0       -0.139634    0.285414   -0.025189
     10          6           0       -1.526917    0.343048   -0.018522
     11          6           0       -2.295005   -0.827718    0.010568
     12          6           0       -1.635329   -2.052406    0.011787
     13          6           0       -0.253697   -2.119676   -0.000161
     14          1           0        2.273384   -2.025723   -0.023219
     15          1           0        5.077848    0.918673    0.893893
     16          1           0        5.084170    0.934995   -0.872831
     17          1           0        6.457785   -1.157833   -0.882478
     18          1           0        6.452016   -1.173182    0.875404
     19          1           0        7.675742    1.054962   -0.862761
     20          1           0        8.586181   -0.174540    0.012362
     21          1           0        7.669711    1.039982    0.901979
     22          1           0        0.438986    1.195872   -0.044829
     23          1           0        0.235210   -3.088367    0.005144
     24          6           0       -3.804923   -0.844213    0.004577
     25          6           0       -2.146762    1.726140   -0.002030
     26          1           0       -2.211261   -2.968380    0.030794
     27          9           0       -4.331326    0.064624    0.830141
     28          9           0       -4.271741   -2.041247    0.397109
     29          9           0       -4.308735   -0.623326   -1.216894
     30          9           0       -1.273523    2.657378   -0.404697
     31          9           0       -2.541966    2.073184    1.229140
     32          9           0       -3.207285    1.813197   -0.810341
 ---------------------------------------------------------------------

 SCF Done:  E(RDSDPBEP86) =  -1264.69245236     A.U. after   13 cycles
 E2(DSDPBEP86) =    -0.2058582825D+01 E(DSDPBEP86) =    -0.12667510351818D+04

 The electronic state is 1-A.
 Alpha  occ. eigenvalues --  -25.71249 -25.71084 -25.70945 -25.70940 -25.70706
 Alpha  occ. eigenvalues --  -25.70671 -20.06898 -20.00268 -15.14831 -11.09104
 Alpha  occ. eigenvalues --  -11.09061 -11.00580 -10.91132 -10.88752 -10.87972
 Alpha  occ. eigenvalues --  -10.87048 -10.86235 -10.85688 -10.85085 -10.83067
 Alpha  occ. eigenvalues --  -10.82038  -1.58025  -1.57564  -1.48552  -1.48245
 Alpha  occ. eigenvalues --   -1.48080  -1.47947  -1.36115  -1.25856  -1.17674
 Alpha  occ. eigenvalues --   -1.08751  -0.99419  -0.98032  -0.97074  -0.89672
 Alpha  occ. eigenvalues --   -0.88136  -0.85846  -0.81080  -0.80170  -0.76144
 Alpha  occ. eigenvalues --   -0.74756  -0.74479  -0.74117  -0.73787  -0.73385
 Alpha  occ. eigenvalues --   -0.73096  -0.71197  -0.68857  -0.65052  -0.64295
 Alpha  occ. eigenvalues --   -0.62784  -0.62623  -0.62107  -0.61902  -0.61262
 Alpha  occ. eigenvalues --   -0.60152  -0.58829  -0.58414  -0.58128  -0.57281
 Alpha  occ. eigenvalues --   -0.57208  -0.56975  -0.55927  -0.55810  -0.55642
 Alpha  occ. eigenvalues --   -0.54799  -0.53177  -0.53129  -0.50503  -0.49859
 Alpha  occ. eigenvalues --   -0.49157  -0.47890  -0.47647  -0.45150  -0.45024
 Alpha  occ. eigenvalues --   -0.43310  -0.42303  -0.41340  -0.35241  -0.31579
 Alpha virt. eigenvalues --    0.00576   0.01389   0.01747   0.02501   0.02579
 Alpha virt. eigenvalues --    0.02854   0.03238   0.03797   0.04648   0.04886
 Alpha virt. eigenvalues --    0.05170   0.05543   0.05793   0.06477   0.06658

 Mulliken charges:
               1
     1  C    0.733786
     2  N   -0.179626
     3  C    0.399260
     4  O   -0.767945
     5  O   -0.442618
     6  C   -0.214520
     7  C   -0.466787
     8  C   -0.961514
     9  C   -0.873052
    10  C    0.570782
    11  C    0.336746
    12  C   -0.791601
    13  C   -0.587579
    14  H   -0.005910
    15  H    0.340195
    16  H    0.337638
    17  H    0.214583
    18  H    0.214484
    19  H    0.279167
    20  H    0.285642
    21  H    0.278840
    22  H    0.487400
    23  H    0.438133
    24  C    1.238540
    25  C    1.239251
    26  H    0.326771
    27  F   -0.428850
    28  F   -0.385621
    29  F   -0.405937
    30  F   -0.371551
    31  F   -0.407647
    32  F   -0.430459
 Sum of Mulliken charges =  -0.00000

 Dipole moment (field-independent basis, Debye):
    X=              6.2760    Y=             -4.3118    Z=             -0.0296  Tot=              7.6145
 Quadrupole moment (field-independent basis, Debye-Ang):
   XX=           -112.9620   YY=           -116.1249   ZZ=           -120.7247
   XY=             -1.4237   XZ=             -0.0641   YZ=             -0.1471

 Normal termination of Gaussian 16 at Thu Sep 10 15:33:12 2020.
