 Gaussian 09, Revision E.01,

 ----------------------------------------------------------------------
 # M062X/6-311+G* SCF=Tight INT(grid=ultrafine) OPT IOP(2/17=4) Empiric
 alDispersion=GD3 SCRF=(SMD,Solvent=n-Pentadecane) maxdisk=2684354560
 ----------------------------------------------------------------------

 ---------------------------------------------
 29_carboxy.M062X_6-311pGd_opt_Pentadecane_GD3
 ---------------------------------------------
 Symbolic Z-matrix:
 Charge = -1 Multiplicity = 1

 SCF Done:  E(RM062X) =  -1638.71447722     A.U. after   16 cycles
 SCF Done:  E(RM062X) =  -1638.71447710     A.U. after   10 cycles
 SCF Done:  E(RM062X) =  -1638.71447723     A.U. after   10 cycles
 Optimization completed.
    -- Stationary point found.
 Normal termination of Gaussian 09 at Thu Nov 14 22:00:31 2019.
 Gaussian 09:  ES64L-G09RevE.01 30-Nov-2015

 ----------------------------------------------------------------------
 # M062X/6-311+G* SCF=Tight INT(grid=ultrafine) SCRF=(SMD,Solvent=n-Pen
 tadecane) EmpiricalDispersion=GD3 Freq=Noraman maxdisk=2684354560 geom
 =check guess=read IOP(2/17=4)
 ----------------------------------------------------------------------

 ---------------------------------------------
 29_carboxy.M062X_6-311pGd_opt_Pentadecane_GD3
 ---------------------------------------------
 Structure from the checkpoint file:  "29_carboxy.M062X_6-311pGd_opt_Pentadecane_GD3.chk"
 Charge = -1 Multiplicity = 1

                         Standard orientation:
 ---------------------------------------------------------------------
 Center     Atomic      Atomic             Coordinates (Angstroms)
 Number     Number       Type             X           Y           Z
 ---------------------------------------------------------------------
      1          6           0       -0.677193    0.282209   -0.075938
      2          7           0        0.656632   -0.074876   -0.084369
      3          6           0        1.184632   -1.354972   -0.013579
      4          8           0        0.499986   -2.372204    0.055797
      5          7           0        2.537600   -1.366542   -0.040435
      6          6           0        3.266637   -2.609695    0.099394
      7          6           0        4.730176   -2.399298   -0.265883
      8          6           0        5.541504   -3.678635   -0.097238
      9          6           0       -1.749278   -0.619083    0.009469
     10          6           0       -3.060782   -0.151999    0.010023
     11          6           0       -3.327656    1.212323   -0.074299
     12          6           0       -2.272151    2.111014   -0.158232
     13          6           0       -0.966320    1.656162   -0.159019
     14          1           0        1.318602    0.720826   -0.149470
     15          1           0        3.065821   -0.484461    0.016746
     16          1           0        2.814854   -3.364379   -0.550703
     17          1           0        3.188446   -2.992770    1.126065
     18          1           0        5.145319   -1.600571    0.356183
     19          1           0        4.788628   -2.044437   -1.299514
     20          1           0        5.517524   -4.028638    0.938793
     21          1           0        6.588242   -3.525492   -0.369927
     22          1           0        5.148943   -4.482977   -0.726374
     23          1           0       -1.548381   -1.676962    0.074122
     24          6           0       -4.182172   -1.148854    0.105097
     25         17           0       -4.962255    1.838846   -0.078085
     26          1           0       -2.478731    3.172641   -0.223235
     27          1           0       -0.140156    2.357242   -0.223292
     28          9           0       -3.740151   -2.410836    0.177279
     29          9           0       -4.950526   -0.953128    1.193006
     30          9           0       -5.006859   -1.096244   -0.957413
     31          8           0        2.213398    2.222144   -0.225965
     32          8           0        4.062637    1.026538    0.151799
     33          6           0        3.449003    2.103838   -0.013079
     34          6           0        4.247135    3.412874    0.040662
     35          6           0        5.727737    3.243369    0.346234
     36          1           0        3.763684    4.054110    0.784284
     37          1           0        4.100500    3.915711   -0.920716
     38          1           0        5.873818    2.748409    1.308216
     39          1           0        6.237741    4.210870    0.378386
     40          1           0        6.215886    2.624951   -0.409074
 ---------------------------------------------------------------------

 SCF Done:  E(RM062X) =  -1638.71447723     A.U. after    1 cycles

 The electronic state is 1-A.
 Alpha  occ. eigenvalues -- -102.63852 -25.23675 -25.23324 -25.23323 -19.52169
 Alpha  occ. eigenvalues --  -19.50011 -19.49755 -14.70520 -14.68652 -10.76207
 Alpha  occ. eigenvalues --  -10.60523 -10.56649 -10.56153 -10.54989 -10.53476
 Alpha  occ. eigenvalues --  -10.51378 -10.50899 -10.50470 -10.50169 -10.48091
 Alpha  occ. eigenvalues --  -10.48052 -10.46828 -10.46514  -9.78127  -7.50637
 Alpha  occ. eigenvalues --   -7.49965  -7.49964  -1.42888  -1.33481  -1.33145
 Alpha  occ. eigenvalues --   -1.10991  -1.09045  -0.99592  -0.99062  -0.96582
 Alpha  occ. eigenvalues --   -0.95225  -0.89177  -0.84767  -0.82932  -0.80098
 Alpha  occ. eigenvalues --   -0.78751  -0.76349  -0.72292  -0.68990  -0.67018
 Alpha  occ. eigenvalues --   -0.66463  -0.65217  -0.64734  -0.63125  -0.61968
 Alpha  occ. eigenvalues --   -0.59507  -0.56741  -0.53724  -0.53499  -0.53338
 Alpha  occ. eigenvalues --   -0.52343  -0.51143  -0.50029  -0.49812  -0.49194
 Alpha  occ. eigenvalues --   -0.48221  -0.47801  -0.47152  -0.46802  -0.46289
 Alpha  occ. eigenvalues --   -0.46172  -0.45929  -0.44606  -0.43533  -0.43233
 Alpha  occ. eigenvalues --   -0.43117  -0.41602  -0.40616  -0.40185  -0.39656
 Alpha  occ. eigenvalues --   -0.38785  -0.38130  -0.37359  -0.37109  -0.36045
 Alpha  occ. eigenvalues --   -0.35122  -0.34370  -0.33970  -0.33937  -0.31391
 Alpha  occ. eigenvalues --   -0.28493  -0.28102  -0.25829  -0.25304  -0.24943
 Alpha  occ. eigenvalues --   -0.24765  -0.20935
 Alpha virt. eigenvalues --    0.04442   0.05555   0.05847   0.05919   0.06491
 Alpha virt. eigenvalues --    0.07170   0.07387   0.07891   0.08113   0.08404
 Alpha virt. eigenvalues --    0.09104   0.09457   0.09645   0.09730   0.10506

 Mulliken charges:
               1
     1  C   -0.710656
     2  N   -0.452978
     3  C    0.082485
     4  O   -0.418667
     5  N   -0.354709
     6  C   -0.477552
     7  C   -0.126477
     8  C   -1.094944
     9  C   -0.077229
    10  C   -1.181377
    11  C    0.547192
    12  C   -0.106025
    13  C   -0.261346
    14  H    0.463709
    15  H    0.451355
    16  H    0.241495
    17  H    0.250533
    18  H    0.274550
    19  H    0.266909
    20  H    0.256360
    21  H    0.263099
    22  H    0.254974
    23  H    0.333939
    24  C    0.661851
    25  Cl   0.403738
    26  H    0.278689
    27  H    0.347643
    28  F   -0.134332
    29  F   -0.057411
    30  F   -0.057328
    31  O   -0.504143
    32  O   -0.451537
    33  C    0.011586
    34  C   -0.181735
    35  C   -1.011386
    36  H    0.252226
    37  H    0.254125
    38  H    0.259090
    39  H    0.244283
    40  H    0.259999
 Sum of Mulliken charges =  -1.00000

 Dipole moment (field-independent basis, Debye):
    X=             -1.4188    Y=              0.2086    Z=             -0.0528  Tot=              1.4350
 Quadrupole moment (field-independent basis, Debye-Ang):
   XX=           -208.5502   YY=           -163.6689   ZZ=           -148.5066
   XY=            -13.7286   XZ=             -0.3197   YZ=              0.8505

  Exact polarizability: 324.662 -28.196 251.149   1.967  -5.516 148.204
 Approx polarizability: 297.012 -20.123 263.411   1.382  -6.579 178.519

                      1                      2                      3
                      A                      A                      A
 Frequencies --     18.8656                23.7225                36.6424
 Red. masses --      5.9157                 6.1302                 2.9003
 Frc consts  --      0.0012                 0.0020                 0.0023
 IR Inten    --      0.0469                 0.6188                 0.0777

                      4                      5                      6
                      A                      A                      A
 Frequencies --     46.0423                49.4291                52.9299
 Red. masses --      4.2863                 6.6915                 3.3328
 Frc consts  --      0.0054                 0.0096                 0.0055
 IR Inten    --      0.2616                 1.5762                 2.2034

                      7                      8                      9
                      A                      A                      A
 Frequencies --     54.9110                59.7031                67.9035
 Red. masses --      5.5577                 3.0405                 3.1952
 Frc consts  --      0.0099                 0.0064                 0.0087
 IR Inten    --      1.1594                 1.2420                 2.1412

                     10                     11                     12
                      A                      A                      A
 Frequencies --     73.5897                82.9973               106.7478
 Red. masses --      5.4843                 5.0345                 6.9944
 Frc consts  --      0.0175                 0.0204                 0.0470
 IR Inten    --      0.6774                 8.1557                 8.6396

                     13                     14                     15
                      A                      A                      A
 Frequencies --    120.8273               125.4275               147.4910
 Red. masses --      6.1631                 6.2077                 6.3973
 Frc consts  --      0.0530                 0.0575                 0.0820
 IR Inten    --      5.0780                 4.7374                 2.3436

                     16                     17                     18
                      A                      A                      A
 Frequencies --    165.6605               172.6333               195.7288
 Red. masses --      5.8255                10.7158                 3.5183
 Frc consts  --      0.0942                 0.1882                 0.0794
 IR Inten    --     19.3993                 3.0642                 9.5548

                     19                     20                     21
                      A                      A                      A
 Frequencies --    230.6986               234.6272               242.1820
 Red. masses --      6.6285                 1.1094                 1.1565
 Frc consts  --      0.2079                 0.0360                 0.0400
 IR Inten    --      0.5857                 0.7863                 0.3173

                     22                     23                     24
                      A                      A                      A
 Frequencies --    264.2227               301.8861               308.6065
 Red. masses --      5.6878                 3.9116                15.9223
 Frc consts  --      0.2340                 0.2100                 0.8934
 IR Inten    --     10.1276                11.6988                 5.3885

                     25                     26                     27
                      A                      A                      A
 Frequencies --    317.2482               346.2602               351.5343
 Red. masses --      7.2643                 4.7970                 6.5217
 Frc consts  --      0.4308                 0.3389                 0.4748
 IR Inten    --      0.1746                15.8944                 0.2764

                     28                     29                     30
                      A                      A                      A
 Frequencies --    380.4883               421.5518               458.5639
 Red. masses --      8.8928                 5.5756                 6.8306
 Frc consts  --      0.7585                 0.5838                 0.8463
 IR Inten    --      2.5095                19.9234                 4.0636

                     31                     32                     33
                      A                      A                      A
 Frequencies --    468.1784               522.6042               530.8330
 Red. masses --      3.9134                 5.8880                 6.1189
 Frc consts  --      0.5054                 0.9475                 1.0159
 IR Inten    --      2.7848                61.3338                 9.6705

                     34                     35                     36
                      A                      A                      A
 Frequencies --    546.3453               587.1516               598.6859
 Red. masses --      7.9669                 1.9217                 9.2480
 Frc consts  --      1.4011                 0.3903                 1.9530
 IR Inten    --      8.5353                 0.8811                 6.8914

                     37                     38                     39
                      A                      A                      A
 Frequencies --    657.9366               660.5828               672.2383
 Red. masses --      4.8181                 4.5382                 8.5633
 Frc consts  --      1.2288                 1.1668                 2.2800
 IR Inten    --      2.3351                44.6913                31.4577

                     40                     41                     42
                      A                      A                      A
 Frequencies --    703.1538               735.7672               756.2432
 Red. masses --      7.0657                 5.1347                 1.1044
 Frc consts  --      2.0583                 1.6377                 0.3721
 IR Inten    --     18.4727                 0.2970                 3.5981

                     43                     44                     45
                      A                      A                      A
 Frequencies --    762.2435               777.5502               790.2439
 Red. masses --      2.0301                 6.9669                 6.7618
 Frc consts  --      0.6950                 2.4817                 2.4879
 IR Inten    --     50.9873                 9.9350                11.4183

                     46                     47                     48
                      A                      A                      A
 Frequencies --    809.0379               824.1527               865.1481
 Red. masses --      2.0038                 1.4724                 1.3612
 Frc consts  --      0.7727                 0.5892                 0.6003
 IR Inten    --      9.2867                10.9021                12.1492

                     49                     50                     51
                      A                      A                      A
 Frequencies --    890.7475               901.7611               923.7790
 Red. masses --      3.8698                 1.1869                 1.8295
 Frc consts  --      1.8090                 0.5686                 0.9199
 IR Inten    --     52.0213                 8.2054                 8.4004

                     52                     53                     54
                      A                      A                      A
 Frequencies --    938.6876               940.9822               953.6100
 Red. masses --      1.4022                 1.1157                 4.3977
 Frc consts  --      0.7280                 0.5820                 2.3562
 IR Inten    --     81.2200                84.3726                 7.6214

                     55                     56                     57
                      A                      A                      A
 Frequencies --   1009.3552              1025.0266              1042.4558
 Red. masses --      1.2931                 1.6725                 5.7285
 Frc consts  --      0.7762                 1.0353                 3.6678
 IR Inten    --      2.9334                 4.9248                23.2050

                     58                     59                     60
                      A                      A                      A
 Frequencies --   1049.0595              1080.2620              1109.2610
 Red. masses --      3.9992                 2.6146                 1.8111
 Frc consts  --      2.5931                 1.7977                 1.3130
 IR Inten    --     19.6961                 7.6814                 1.2174

                     61                     62                     63
                      A                      A                      A
 Frequencies --   1112.5668              1146.3112              1152.6878
 Red. masses --      2.3152                 2.3310                 2.5177
 Frc consts  --      1.6885                 1.8047                 1.9709
 IR Inten    --      5.2510                75.7172                22.1370

                     64                     65                     66
                      A                      A                      A
 Frequencies --   1168.1596              1176.5306              1182.2794
 Red. masses --     12.7700                 1.9706                 2.4108
 Frc consts  --     10.2670                 1.6072                 1.9854
 IR Inten    --    321.7887                 5.4024               116.2204

                     67                     68                     69
                      A                      A                      A
 Frequencies --   1187.4108              1214.7595              1277.4660
 Red. masses --      2.9118                 2.2098                 2.6102
 Frc consts  --      2.4189                 1.9213                 2.5097
 IR Inten    --      0.7495               256.5318                54.7904

                     70                     71                     72
                      A                      A                      A
 Frequencies --   1278.6592              1292.1215              1296.5743
 Red. masses --      1.3157                 1.1808                 1.6353
 Frc consts  --      1.2674                 1.1615                 1.6197
 IR Inten    --     48.9094                 0.3244               308.9889

                     73                     74                     75
                      A                      A                      A
 Frequencies --   1312.2640              1319.9521              1330.2226
 Red. masses --      3.3514                 1.7941                 1.6394
 Frc consts  --      3.4003                 1.8416                 1.7092
 IR Inten    --    263.3839               190.4107                52.7340

                     76                     77                     78
                      A                      A                      A
 Frequencies --   1332.1757              1363.4595              1395.1939
 Red. masses --      1.1827                 1.8204                 4.0980
 Frc consts  --      1.2367                 1.9939                 4.6999
 IR Inten    --     67.7754               364.6621               202.0449

                     79                     80                     81
                      A                      A                      A
 Frequencies --   1421.1231              1422.3015              1429.3436
 Red. masses --      1.3238                 1.3388                 1.5712
 Frc consts  --      1.5752                 1.5957                 1.8913
 IR Inten    --     18.1646                 6.2651                 2.9932

                     82                     83                     84
                      A                      A                      A
 Frequencies --   1461.4438              1474.5189              1478.0905
 Red. masses --      3.4358                 5.3887                 1.2657
 Frc consts  --      4.3235                 6.9030                 1.6292
 IR Inten    --    422.6590               236.3352                64.2088

                     85                     86                     87
                      A                      A                      A
 Frequencies --   1504.4201              1509.6450              1517.5798
 Red. masses --      1.0615                 1.0381                 1.0400
 Frc consts  --      1.4154                 1.3939                 1.4112
 IR Inten    --      7.5452                 8.9065                11.0056

                     88                     89                     90
                      A                      A                      A
 Frequencies --   1519.5821              1520.7617              1534.8121
 Red. masses --      1.0826                 1.0729                 1.1352
 Frc consts  --      1.4729                 1.4619                 1.5755
 IR Inten    --     54.6428                 1.8173                65.7847

                     91                     92                     93
                      A                      A                      A
 Frequencies --   1538.8792              1615.8798              1637.5750
 Red. masses --      2.5999                 3.2817                 2.9137
 Frc consts  --      3.6275                 5.0485                 4.6036
 IR Inten    --    399.0473                36.6150                53.9615

                     94                     95                     96
                      A                      A                      A
 Frequencies --   1668.6681              1676.3751              1706.1208
 Red. masses --      5.9808                 2.7432                 3.0064
 Frc consts  --      9.8119                 4.5420                 5.1560
 IR Inten    --    686.1390               520.4363               600.3005

                     97                     98                     99
                      A                      A                      A
 Frequencies --   1779.9358              3027.6052              3059.9226
 Red. masses --      2.5754                 1.0711                 1.0373
 Frc consts  --      4.8074                 5.7847                 5.7221
 IR Inten    --    415.8025                73.8236                43.8010

                    100                    101                    102
                      A                      A                      A
 Frequencies --   3065.8444              3073.3437              3073.6398
 Red. masses --      1.0435                 1.0613                 1.0587
 Frc consts  --      5.7790                 5.9060                 5.8929
 IR Inten    --     95.6427                29.0469                21.1472

                    103                    104                    105
                      A                      A                      A
 Frequencies --   3092.3018              3100.0699              3104.4906
 Red. masses --      1.0931                 1.0941                 1.1011
 Frc consts  --      6.1583                 6.1949                 6.2526
 IR Inten    --     14.4778              1120.4073                12.2904

                    106                    107                    108
                      A                      A                      A
 Frequencies --   3109.3209              3130.6670              3133.5741
 Red. masses --      1.1014                 1.1036                 1.0978
 Frc consts  --      6.2740                 6.3728                 6.3510
 IR Inten    --     12.9184                76.7380                49.8170

                    109                    110                    111
                      A                      A                      A
 Frequencies --   3134.0895              3152.1381              3213.3880
 Red. masses --      1.1015                 1.1027                 1.0915
 Frc consts  --      6.3748                 6.4551                 6.6406
 IR Inten    --     43.5029                41.9250                10.0161

                    112                    113                    114
                      A                      A                      A
 Frequencies --   3234.5818              3262.4976              3290.1382
 Red. masses --      1.0944                 1.0889                 1.0907
 Frc consts  --      6.7464                 6.8284                 6.9564
 IR Inten    --      3.8786              1423.0647                26.3246

 - Thermochemistry -
 -------------------
 Temperature   298.150 Kelvin.  Pressure   1.00000 Atm.
 Atom     1 has atomic number  6 and mass  12.00000

 Molecular mass:   353.08798 amu.
 Principal axes and moments of inertia in atomic units:
                           1         2         3
     Eigenvalues --  5282.93781********************
           X            0.99996  -0.00892   0.00100
           Y            0.00891   0.99996   0.00305
           Z           -0.00103  -0.00304   0.99999
 This molecule is an asymmetric top.
 Rotational symmetry number  1.
 Warning -- assumption of classical behavior for rotation
           may cause significant error
 Rotational temperatures (Kelvin)      0.01640     0.00486     0.00382
 Rotational constants (GHZ):           0.34162     0.10125     0.07954
 Zero-point vibrational energy     806317.0 (Joules/Mol)
                                  192.71438 (Kcal/Mol)
 Warning -- explicit consideration of  36 degrees of freedom as
           vibrations may cause significant error
 Vibrational temperatures:     27.14    34.13    52.72    66.24    71.12
          (Kelvin)             76.15    79.00    85.90    97.70   105.88
                              119.41   153.59   173.84   180.46   212.21
                              238.35   248.38   281.61   331.92   337.58
                              348.45   380.16   434.35   444.02   456.45
                              498.19   505.78   547.44   606.52   659.77
                              673.60   751.91   763.75   786.07   844.78
                              861.37   946.62   950.43   967.20  1011.68
                             1058.60  1088.06  1096.70  1118.72  1136.98
                             1164.02  1185.77  1244.75  1281.59  1297.43
                             1329.11  1350.56  1353.86  1372.03  1452.24
                             1474.78  1499.86  1509.36  1554.25  1595.98
                             1600.73  1649.28  1658.46  1680.72  1692.76
                             1701.03  1708.42  1747.77  1837.99  1839.70
                             1859.07  1865.48  1888.05  1899.11  1913.89
                             1916.70  1961.71  2007.37  2044.68  2046.37
                             2056.50  2102.69  2121.50  2126.64  2164.52
                             2172.04  2183.46  2186.34  2188.03  2208.25
                             2214.10  2324.89  2356.10  2400.84  2411.93
                             2454.72  2560.93  4356.04  4402.54  4411.06
                             4421.85  4422.28  4449.13  4460.30  4466.66
                             4473.61  4504.33  4508.51  4509.25  4535.22
                             4623.34  4653.84  4694.00  4733.77

 Zero-point correction=                           0.307110 (Hartree/Particle)
 Thermal correction to Energy=                    0.331601
 Thermal correction to Enthalpy=                  0.332545
 Thermal correction to Gibbs Free Energy=         0.248107
 Sum of electronic and zero-point Energies=          -1638.407367
 Sum of electronic and thermal Energies=             -1638.382876
 Sum of electronic and thermal Enthalpies=           -1638.381932
 Sum of electronic and thermal Free Energies=        -1638.466370

                     E (Thermal)             CV                S
                      KCal/Mol        Cal/Mol-Kelvin    Cal/Mol-Kelvin
 Total                  208.083             85.570            177.714
 Electronic               0.000              0.000              0.000
 Translational            0.889              2.981             43.478
 Rotational               0.889              2.981             36.012
 Vibrational            206.305             79.608             98.224
 Vibration     1          0.593              1.986              6.750
 Vibration     2          0.593              1.985              6.295
 Vibration     3          0.594              1.982              5.433
 Vibration     4          0.595              1.979              4.981
 Vibration     5          0.595              1.978              4.840
 Vibration     6          0.596              1.976              4.705
 Vibration     7          0.596              1.976              4.632
 Vibration     8          0.597              1.974              4.467
 Vibration     9          0.598              1.970              4.213
 Vibration    10          0.599              1.966              4.055
 Vibration    11          0.600              1.961              3.819
 Vibration    12          0.606              1.944              3.327
 Vibration    13          0.609              1.932              3.087
 Vibration    14          0.610              1.928              3.015
 Vibration    15          0.617              1.905              2.704
 Vibration    16          0.624              1.885              2.484
 Vibration    17          0.626              1.876              2.407
 Vibration    18          0.636              1.846              2.173
 Vibration    19          0.652              1.794              1.874
 Vibration    20          0.654              1.788              1.843
 Vibration    21          0.658              1.776              1.787
 Vibration    22          0.671              1.739              1.634
 Vibration    23          0.694              1.670              1.406
 Vibration    24          0.698              1.657              1.370
 Vibration    25          0.704              1.641              1.324
 Vibration    26          0.724              1.583              1.183
 Vibration    27          0.728              1.572              1.159
 Vibration    28          0.750              1.512              1.037
 Vibration    29          0.784              1.423              0.887
 Vibration    30          0.817              1.342              0.770
 Vibration    31          0.825              1.321              0.743
 Vibration    32          0.878              1.200              0.604
 Vibration    33          0.886              1.182              0.585
 Vibration    34          0.902              1.148              0.552
 Vibration    35          0.944              1.059              0.472
 Vibration    36          0.957              1.035              0.452

 Normal termination of Gaussian 09 at Thu Nov 14 23:30:36 2019.
