 Gaussian 16, Revision C.01,
 Gaussian 16:  ES64L-G16RevC.01  3-Jul-2019

 ----------------------------------------------------------------------
 # DSDPBEP86/AUG-cc-PVTZ SCF=Tight INT(grid=ultrafine) IOP(8/23=30) Max
 Disk=1400000MB
 ----------------------------------------------------------------------

 --------------------------------
 29_carboxy.DSDPBEP86_AUG-cc-PVTZ
 --------------------------------
 Symbolic Z-matrix:
 Charge = -1 Multiplicity = 1

                         Standard orientation:
 ---------------------------------------------------------------------
 Center     Atomic      Atomic             Coordinates (Angstroms)
 Number     Number       Type             X           Y           Z
 ---------------------------------------------------------------------
      1          6           0       -0.683829    0.286961   -0.047809
      2          7           0        0.647312   -0.069390   -0.055513
      3          6           0        1.174594   -1.351759    0.005296
      4          8           0        0.493557   -2.370056    0.071954
      5          7           0        2.528684   -1.356959   -0.026851
      6          6           0        3.259117   -2.595109    0.117427
      7          6           0        4.719517   -2.379964   -0.260177
      8          6           0        5.545154   -3.647591   -0.065361
      9          6           0       -1.757367   -0.616750    0.003090
     10          6           0       -3.068932   -0.149344    0.003400
     11          6           0       -3.334211    1.217134   -0.047547
     12          6           0       -2.277283    2.116860   -0.097117
     13          6           0       -0.970955    1.663689   -0.097041
     14          1           0        1.312312    0.726209   -0.097568
     15          1           0        3.058087   -0.474184    0.023892
     16          1           0        2.802056   -3.357084   -0.521072
     17          1           0        3.189992   -2.971812    1.148039
     18          1           0        5.128315   -1.559082    0.336445
     19          1           0        4.768254   -2.048109   -1.301659
     20          1           0        5.529842   -3.970719    0.979483
     21          1           0        6.588804   -3.493327   -0.348964
     22          1           0        5.153825   -4.471479   -0.669580
     23          1           0       -1.553797   -1.675807    0.042612
     24          6           0       -4.192626   -1.146809    0.059180
     25         17           0       -4.968044    1.847617   -0.051592
     26          1           0       -2.486651    3.179272   -0.135628
     27          1           0       -0.141499    2.363552   -0.134049
     28          9           0       -4.976785   -0.975066    1.140042
     29          9           0       -5.001633   -1.067733   -1.014225
     30          9           0       -3.753166   -2.410917    0.108423
     31          8           0        2.224130    2.210837   -0.134401
     32          8           0        4.088910    1.002940    0.129227
     33          6           0        3.467258    2.081174    0.008377
     34          6           0        4.276493    3.387242    0.034321
     35          6           0        5.777942    3.190991    0.190293
     36          1           0        3.871074    3.998835    0.846629
     37          1           0        4.040827    3.929019   -0.886997
     38          1           0        6.003387    2.657074    1.114864
     39          1           0        6.306821    4.149093    0.203769
     40          1           0        6.175373    2.586819   -0.626999
 ---------------------------------------------------------------------

 SCF Done:  E(RDSDPBEP86) =  -1634.82306212     A.U. after   14 cycles
 E2(DSDPBEP86) =    -0.2209937036D+01 E(DSDPBEP86) =    -0.16370329991550D+04

 The electronic state is 1-A.
 Alpha  occ. eigenvalues -- -103.48264 -25.61777 -25.61466 -25.61463 -19.84280
 Alpha  occ. eigenvalues --  -19.82097 -19.81827 -14.97991 -14.96084 -10.99333
 Alpha  occ. eigenvalues --  -10.83255 -10.79423 -10.78876 -10.77654 -10.76099
 Alpha  occ. eigenvalues --  -10.74239 -10.73618 -10.72885 -10.72679 -10.71863
 Alpha  occ. eigenvalues --  -10.71112 -10.69742 -10.69652 -10.05759  -7.63435
 Alpha  occ. eigenvalues --   -7.62972  -7.62966  -1.48184  -1.38786  -1.38484
 Alpha  occ. eigenvalues --   -1.14587  -1.12593  -1.02811  -1.02261  -0.99467
 Alpha  occ. eigenvalues --   -0.97945  -0.91383  -0.86746  -0.85356  -0.82305
 Alpha  occ. eigenvalues --   -0.80306  -0.77100  -0.73572  -0.69067  -0.67358
 Alpha  occ. eigenvalues --   -0.67015  -0.64330  -0.64292  -0.63232  -0.61558
 Alpha  occ. eigenvalues --   -0.58783  -0.55556  -0.52821  -0.52666  -0.52580
 Alpha  occ. eigenvalues --   -0.51200  -0.49861  -0.48863  -0.48502  -0.48303
 Alpha  occ. eigenvalues --   -0.46980  -0.46474  -0.46457  -0.44987  -0.44804
 Alpha  occ. eigenvalues --   -0.44323  -0.43948  -0.43157  -0.41969  -0.41441
 Alpha  occ. eigenvalues --   -0.40806  -0.39761  -0.38571  -0.38280  -0.37055
 Alpha  occ. eigenvalues --   -0.36976  -0.36225  -0.35644  -0.34309  -0.34112
 Alpha  occ. eigenvalues --   -0.33141  -0.32340  -0.31705  -0.31531  -0.28086
 Alpha  occ. eigenvalues --   -0.25961  -0.23455  -0.22663  -0.22406  -0.22079
 Alpha  occ. eigenvalues --   -0.21856  -0.16414
 Alpha virt. eigenvalues --    0.08196   0.08823   0.09487   0.10045   0.10267
 Alpha virt. eigenvalues --    0.10933   0.11057   0.11315   0.11666   0.12597
 Alpha virt. eigenvalues --    0.12788   0.12972   0.13257   0.13337   0.13868

 Mulliken charges:
               1
     1  C    0.612982
     2  N   -0.424433
     3  C    0.022498
     4  O   -0.968936
     5  N   -0.284530
     6  C   -0.498287
     7  C   -0.439086
     8  C   -1.007436
     9  C   -1.022192
    10  C    0.526540
    11  C    0.726775
    12  C   -1.028678
    13  C   -0.497642
    14  H    0.743522
    15  H    0.876689
    16  H    0.361714
    17  H    0.238382
    18  H    0.299624
    19  H    0.225079
    20  H    0.267073
    21  H    0.267743
    22  H    0.271010
    23  H    0.337467
    24  C    1.217088
    25  Cl  -0.518606
    26  H    0.372747
    27  H    0.683934
    28  F   -0.426174
    29  F   -0.425971
    30  F   -0.361292
    31  O   -0.940021
    32  O   -0.836970
    33  C    0.648483
    34  C   -0.262768
    35  C   -0.928680
    36  H    0.195245
    37  H    0.194585
    38  H    0.254490
    39  H    0.267586
    40  H    0.260447
 Sum of Mulliken charges =  -1.00000

 Dipole moment (field-independent basis, Debye):
    X=             -1.7385    Y=              0.1103    Z=             -0.0995  Tot=              1.7448
 Quadrupole moment (field-independent basis, Debye-Ang):
   XX=           -215.0128   YY=           -167.2615   ZZ=           -147.2756
   XY=            -10.9174   XZ=             -0.4266   YZ=              0.7310

 Normal termination of Gaussian 16 at Fri Sep 18 17:05:52 2020.
