 Gaussian 09, Revision E.01,

 ----------------------------------------------------------------------
 # M062X/6-311+G* SCF=Tight INT(grid=ultrafine) OPT IOP(2/17=4) Empiric
 alDispersion=GD3 SCRF=(SMD,Solvent=h2o) maxdisk=2684354560
 ----------------------------------------------------------------------

 ---------------------------------------
 29_carboxy.M062X_6-311pGd_opt_water_GD3
 ---------------------------------------
 Symbolic Z-matrix:
 Charge = -1 Multiplicity = 1

 SCF Done:  E(RM062X) =  -1638.74599221     A.U. after   15 cycles
 SCF Done:  E(RM062X) =  -1638.74599214     A.U. after   10 cycles
 SCF Done:  E(RM062X) =  -1638.74599222     A.U. after    9 cycles
 Optimization completed.
    -- Stationary point found.
 Normal termination of Gaussian 09 at Thu Nov 14 22:01:54 2019.
 Gaussian 09:  ES64L-G09RevE.01 30-Nov-2015

 ----------------------------------------------------------------------
 # M062X/6-311+G* SCF=Tight INT(grid=ultrafine) SCRF=(SMD,Solvent=h2o)
 EmpiricalDispersion=GD3 Freq=Noraman maxdisk=2684354560 geom=check gue
 ss=read IOP(2/17=4)
 ----------------------------------------------------------------------

 ---------------------------------------
 29_carboxy.M062X_6-311pGd_opt_water_GD3
 ---------------------------------------
 Structure from the checkpoint file:  "29_carboxy.M062X_6-311pGd_opt_water_GD3.chk"
 Charge = -1 Multiplicity = 1

                         Standard orientation:
 ---------------------------------------------------------------------
 Center     Atomic      Atomic             Coordinates (Angstroms)
 Number     Number       Type             X           Y           Z
 ---------------------------------------------------------------------
      1          6           0        0.720002   -0.327726   -0.157481
      2          7           0       -0.626829    0.021352   -0.079952
      3          6           0       -1.145094    1.293716   -0.232594
      4          8           0       -0.443136    2.293575   -0.436424
      5          7           0       -2.487076    1.347932   -0.152033
      6          6           0       -3.198024    2.610269   -0.288821
      7          6           0       -4.694118    2.386472   -0.135999
      8          6           0       -5.465040    3.692225   -0.284277
      9          6           0        1.762287    0.544504    0.172130
     10          6           0        3.083407    0.116706    0.097552
     11          6           0        3.380288   -1.189131   -0.288511
     12          6           0        2.350648   -2.067485   -0.594355
     13          6           0        1.034815   -1.639288   -0.532579
     14          1           0       -1.295398   -0.756918   -0.163004
     15          1           0       -3.018023    0.510336    0.101780
     16          1           0       -2.982980    3.049739   -1.267659
     17          1           0       -2.846788    3.319889    0.467290
     18          1           0       -4.893858    1.941430    0.843932
     19          1           0       -5.029469    1.663841   -0.886667
     20          1           0       -5.154902    4.419175    0.470991
     21          1           0       -6.538850    3.531291   -0.171521
     22          1           0       -5.295263    4.138982   -1.267443
     23          1           0        1.544144    1.550370    0.495511
     24          6           0        4.179343    1.083319    0.451588
     25         17           0        5.026261   -1.760008   -0.402131
     26          1           0        2.578541   -3.084117   -0.890333
     27          1           0        0.235621   -2.329524   -0.779983
     28          9           0        3.703929    2.282242    0.810180
     29          9           0        4.931808    0.648418    1.477799
     30          9           0        5.020263    1.297538   -0.575946
     31          8           0       -2.451561   -2.153630   -0.405600
     32          8           0       -4.052623   -0.982056    0.606965
     33          6           0       -3.597857   -2.048099    0.119031
     34          6           0       -4.456751   -3.307385    0.145723
     35          6           0       -5.834861   -3.135038    0.764622
     36          1           0       -3.883263   -4.071993    0.678716
     37          1           0       -4.534529   -3.661925   -0.886517
     38          1           0       -5.765307   -2.811805    1.805148
     39          1           0       -6.385831   -4.077779    0.742810
     40          1           0       -6.422650   -2.391086    0.223077
 ---------------------------------------------------------------------

 SCF Done:  E(RM062X) =  -1638.74599222     A.U. after    2 cycles

 The electronic state is 1-A.
 Alpha  occ. eigenvalues -- -102.68637 -25.28666 -25.28303 -25.28291 -19.59271
 Alpha  occ. eigenvalues --  -19.57911 -19.57604 -14.76991 -14.75446 -10.81250
 Alpha  occ. eigenvalues --  -10.67442 -10.63859 -10.61948 -10.60506 -10.58743
 Alpha  occ. eigenvalues --  -10.56352 -10.56256 -10.56085 -10.55788 -10.52682
 Alpha  occ. eigenvalues --  -10.52462 -10.51546 -10.51350  -9.82915  -7.55428
 Alpha  occ. eigenvalues --   -7.54751  -7.54742  -1.47892  -1.38497  -1.38151
 Alpha  occ. eigenvalues --   -1.17720  -1.16681  -1.06822  -1.05614  -1.02622
 Alpha  occ. eigenvalues --   -1.00823  -0.94522  -0.90065  -0.87736  -0.85739
 Alpha  occ. eigenvalues --   -0.84140  -0.81544  -0.77262  -0.74249  -0.72206
 Alpha  occ. eigenvalues --   -0.72167  -0.70225  -0.69842  -0.68049  -0.67806
 Alpha  occ. eigenvalues --   -0.65470  -0.62714  -0.59553  -0.58825  -0.58474
 Alpha  occ. eigenvalues --   -0.58366  -0.56892  -0.55754  -0.55296  -0.54201
 Alpha  occ. eigenvalues --   -0.53857  -0.53569  -0.53031  -0.52842  -0.52137
 Alpha  occ. eigenvalues --   -0.51807  -0.51434  -0.50668  -0.50312  -0.48976
 Alpha  occ. eigenvalues --   -0.48231  -0.46521  -0.46248  -0.45538  -0.45436
 Alpha  occ. eigenvalues --   -0.44319  -0.43831  -0.42296  -0.41727  -0.41485
 Alpha  occ. eigenvalues --   -0.39686  -0.39451  -0.38941  -0.38782  -0.36892
 Alpha  occ. eigenvalues --   -0.35975  -0.33969  -0.33322  -0.32907  -0.32469
 Alpha  occ. eigenvalues --   -0.32074  -0.27202
 Alpha virt. eigenvalues --   -0.00886   0.00389   0.01345   0.02054   0.02681
 Alpha virt. eigenvalues --    0.02938   0.03309   0.03749   0.04181   0.04502
 Alpha virt. eigenvalues --    0.04875   0.05317   0.05392   0.05826   0.06254

 Mulliken charges:
               1
     1  C   -1.296094
     2  N   -0.306767
     3  C    0.168026
     4  O   -0.538148
     5  N   -0.451276
     6  C   -0.541477
     7  C   -0.085560
     8  C   -1.168873
     9  C   -0.357014
    10  C   -1.290895
    11  C    1.140229
    12  C   -0.459920
    13  C    0.403733
    14  H    0.449518
    15  H    0.467830
    16  H    0.271953
    17  H    0.272593
    18  H    0.273475
    19  H    0.274148
    20  H    0.268541
    21  H    0.279738
    22  H    0.269414
    23  H    0.323759
    24  C    0.755477
    25  Cl   0.399494
    26  H    0.319568
    27  H    0.320041
    28  F   -0.140311
    29  F   -0.053141
    30  F   -0.053651
    31  O   -0.618446
    32  O   -0.571981
    33  C    0.208571
    34  C   -0.299753
    35  C   -1.018465
    36  H    0.285915
    37  H    0.285418
    38  H    0.268859
    39  H    0.275562
    40  H    0.269912
 Sum of Mulliken charges =  -1.00000

 Dipole moment (field-independent basis, Debye):
    X=              2.2192    Y=             -1.3384    Z=             -0.1740  Tot=              2.5974
 Quadrupole moment (field-independent basis, Debye-Ang):
   XX=           -197.0692   YY=           -155.0331   ZZ=           -149.4809
   XY=            -16.1639   XZ=              3.0532   YZ=              2.7246

  Exact polarizability: 358.592 -28.414 301.406  -8.388  18.101 205.543
 Approx polarizability: 289.148 -16.733 255.034  -6.186  15.645 184.624

                      1                      2                      3
                      A                      A                      A
 Frequencies --     15.2259                20.7847                22.1367
 Red. masses --      7.3452                 5.3031                 5.0037
 Frc consts  --      0.0010                 0.0013                 0.0014
 IR Inten    --      1.0441                 2.0310                 0.8423

                      4                      5                      6
                      A                      A                      A
 Frequencies --     36.3817                42.5780                44.2476
 Red. masses --      2.6380                 4.9942                 6.7311
 Frc consts  --      0.0021                 0.0053                 0.0078
 IR Inten    --      3.8052                 7.2111                 8.0945

                      7                      8                      9
                      A                      A                      A
 Frequencies --     53.2109                57.4556                64.0179
 Red. masses --      1.9977                 7.1845                 5.9160
 Frc consts  --      0.0033                 0.0140                 0.0143
 IR Inten    --      0.5235                 2.5898                 1.0505

                     10                     11                     12
                      A                      A                      A
 Frequencies --     67.5701                84.3922                97.9170
 Red. masses --      5.0421                 5.0014                 4.5094
 Frc consts  --      0.0136                 0.0210                 0.0255
 IR Inten    --      3.6550                 9.1332                16.7359

                     13                     14                     15
                      A                      A                      A
 Frequencies --    113.4613               116.7493               146.0225
 Red. masses --      5.1231                 7.7894                 6.4560
 Frc consts  --      0.0389                 0.0626                 0.0811
 IR Inten    --      1.5948                16.7240                 5.2664

                     16                     17                     18
                      A                      A                      A
 Frequencies --    154.9442               163.1571               180.0443
 Red. masses --      3.9306                 5.0760                10.9358
 Frc consts  --      0.0556                 0.0796                 0.2089
 IR Inten    --     14.4780                14.7734                 4.9307

                     19                     20                     21
                      A                      A                      A
 Frequencies --    231.1436               241.0375               244.5977
 Red. masses --      6.6501                 1.1320                 1.0933
 Frc consts  --      0.2093                 0.0387                 0.0385
 IR Inten    --      0.7405                 0.1450                 1.4279

                     22                     23                     24
                      A                      A                      A
 Frequencies --    262.3975               302.8581               307.7780
 Red. masses --      6.2381                 3.9274                14.4143
 Frc consts  --      0.2531                 0.2122                 0.8045
 IR Inten    --     13.9120                10.6572                 5.7046

                     25                     26                     27
                      A                      A                      A
 Frequencies --    315.9018               346.8866               350.2468
 Red. masses --      6.4507                 5.0945                 6.0079
 Frc consts  --      0.3793                 0.3612                 0.4342
 IR Inten    --      0.6989                20.1739                 1.2784

                     28                     29                     30
                      A                      A                      A
 Frequencies --    385.1946               419.9567               460.0657
 Red. masses --      9.0353                 5.4550                 5.8132
 Frc consts  --      0.7899                 0.5668                 0.7249
 IR Inten    --      4.0730                30.2834                 3.7149

                     31                     32                     33
                      A                      A                      A
 Frequencies --    463.5803               520.0162               526.8248
 Red. masses --      4.0973                 5.8173                 5.8406
 Frc consts  --      0.5188                 0.9268                 0.9551
 IR Inten    --      6.0961                61.0924                14.5170

                     34                     35                     36
                      A                      A                      A
 Frequencies --    540.6156               582.8915               596.9655
 Red. masses --      7.5996                 1.8724                 8.6284
 Frc consts  --      1.3086                 0.3748                 1.8117
 IR Inten    --     15.5207                 1.2349                 5.8752

                     37                     38                     39
                      A                      A                      A
 Frequencies --    640.2428               650.0078               657.6015
 Red. masses --      1.3079                 4.9826                 3.3728
 Frc consts  --      0.3159                 1.2404                 0.8593
 IR Inten    --    159.4865                18.8418                48.3884

                     40                     41                     42
                      A                      A                      A
 Frequencies --    672.0219               705.1022               735.4899
 Red. masses --      7.4381                 6.5858                 4.3494
 Frc consts  --      1.9792                 1.9291                 1.3862
 IR Inten    --     33.8835                30.6982                13.7932

                     43                     44                     45
                      A                      A                      A
 Frequencies --    749.2202               758.3257               771.9923
 Red. masses --      1.9369                 1.1070                 9.2805
 Frc consts  --      0.6406                 0.3751                 3.2587
 IR Inten    --    100.8119                 4.1813                 5.0871

                     46                     47                     48
                      A                      A                      A
 Frequencies --    789.9723               813.4820               824.4513
 Red. masses --      4.8056                 1.9347                 1.5280
 Frc consts  --      1.7670                 0.7543                 0.6119
 IR Inten    --     14.4287               150.6213                78.7101

                     49                     50                     51
                      A                      A                      A
 Frequencies --    855.2827               887.7246               905.7936
 Red. masses --      1.4375                 3.9279                 1.1572
 Frc consts  --      0.6195                 1.8238                 0.5594
 IR Inten    --     64.3091                38.1786                 1.0009

                     52                     53                     54
                      A                      A                      A
 Frequencies --    909.3950               927.5484               953.9294
 Red. masses --      1.5663                 1.7761                 4.5772
 Frc consts  --      0.7632                 0.9003                 2.4541
 IR Inten    --     53.5430                 3.2612                21.9255

                     55                     56                     57
                      A                      A                      A
 Frequencies --    993.0264              1025.6733              1045.8725
 Red. masses --      1.3389                 1.6641                 5.6471
 Frc consts  --      0.7779                 1.0314                 3.6395
 IR Inten    --      0.3893                13.7078                37.0441

                     58                     59                     60
                      A                      A                      A
 Frequencies --   1049.0780              1080.5579              1110.2631
 Red. masses --      4.2208                 2.5388                 2.2946
 Frc consts  --      2.7369                 1.7465                 1.6665
 IR Inten    --     15.1683                 7.8262                18.6382

                     61                     62                     63
                      A                      A                      A
 Frequencies --   1111.1296              1145.1128              1146.0433
 Red. masses --      1.8215                 2.6766                11.0746
 Frc consts  --      1.3250                 2.0679                 8.5700
 IR Inten    --      3.0842               129.7896               449.5117

                     64                     65                     66
                      A                      A                      A
 Frequencies --   1149.9233              1167.3397              1175.7753
 Red. masses --      2.5922                 2.8669                 3.9004
 Frc consts  --      2.0196                 2.3017                 3.1769
 IR Inten    --     26.1360               190.8481                12.8203

                     67                     68                     69
                      A                      A                      A
 Frequencies --   1180.6552              1199.6122              1278.6154
 Red. masses --      1.6242                 1.8987                 3.3213
 Frc consts  --      1.3340                 1.6098                 3.1992
 IR Inten    --      0.2625               257.7995               201.4701

                     70                     71                     72
                      A                      A                      A
 Frequencies --   1284.6763              1295.0589              1296.2726
 Red. masses --      1.1880                 1.5836                 1.1725
 Frc consts  --      1.1552                 1.5649                 1.1608
 IR Inten    --      0.5483               249.3957                 6.7497

                     73                     74                     75
                      A                      A                      A
 Frequencies --   1302.0975              1316.8973              1332.0556
 Red. masses --      2.9796                 1.9780                 1.7656
 Frc consts  --      2.9765                 2.0211                 1.8458
 IR Inten    --    392.7164               192.7643               134.1932

                     76                     77                     78
                      A                      A                      A
 Frequencies --   1332.7364              1353.9051              1377.4305
 Red. masses --      1.0781                 1.7348                 4.2091
 Frc consts  --      1.1283                 1.8736                 4.7052
 IR Inten    --      4.8803               299.5795               252.6950

                     79                     80                     81
                      A                      A                      A
 Frequencies --   1417.1050              1417.3702              1427.1681
 Red. masses --      1.2869                 1.3004                 1.6789
 Frc consts  --      1.5226                 1.5392                 2.0148
 IR Inten    --     14.7454                21.9618                18.9713

                     82                     83                     84
                      A                      A                      A
 Frequencies --   1447.9667              1463.1958              1469.0625
 Red. masses --      1.6025                 2.0708                 5.2200
 Frc consts  --      1.9795                 2.6121                 6.6375
 IR Inten    --    241.0617               231.7600               350.9868

                     85                     86                     87
                      A                      A                      A
 Frequencies --   1483.9265              1499.3984              1500.4303
 Red. masses --      1.0602                 1.0375                 1.0384
 Frc consts  --      1.3755                 1.3742                 1.3773
 IR Inten    --      6.5506                13.1301                13.3086

                     88                     89                     90
                      A                      A                      A
 Frequencies --   1505.0116              1508.2852              1528.1983
 Red. masses --      1.0993                 1.0792                 1.1128
 Frc consts  --      1.4670                 1.4465                 1.5312
 IR Inten    --     68.0686                 3.2170                94.4347

                     91                     92                     93
                      A                      A                      A
 Frequencies --   1532.5646              1543.4715              1600.1433
 Red. masses --      2.7681                 7.0155                 3.0918
 Frc consts  --      3.8307                 9.8471                 4.6643
 IR Inten    --    479.1657               967.2981               495.8252

                     94                     95                     96
                      A                      A                      A
 Frequencies --   1616.9487              1651.6901              1684.7073
 Red. masses --      1.8415                 8.0350                 5.8198
 Frc consts  --      2.8368                12.9149                 9.7322
 IR Inten    --   1347.1966               136.3829                40.2486

                     97                     98                     99
                      A                      A                      A
 Frequencies --   1718.4817              3062.4886              3066.2360
 Red. masses --      1.8401                 1.0586                 1.0391
 Frc consts  --      3.2018                 5.8499                 5.7560
 IR Inten    --    515.3802                13.7472                24.6441

                    100                    101                    102
                      A                      A                      A
 Frequencies --   3070.2931              3074.6590              3078.7875
 Red. masses --      1.0581                 1.0368                 1.0623
 Frc consts  --      5.8767                 5.7747                 5.9326
 IR Inten    --    122.0911                45.0486                18.3658

                    103                    104                    105
                      A                      A                      A
 Frequencies --   3092.0453              3111.5727              3111.6113
 Red. masses --      1.1039                 1.1014                 1.1061
 Frc consts  --      6.2180                 6.2831                 6.3098
 IR Inten    --      6.1751                 2.6575                47.5173

                    106                    107                    108
                      A                      A                      A
 Frequencies --   3134.7416              3143.1802              3143.2793
 Red. masses --      1.1041                 1.1025                 1.1023
 Frc consts  --      6.3926                 6.4176                 6.4170
 IR Inten    --     98.5610                51.7195                45.2465

                    109                    110                    111
                      A                      A                      A
 Frequencies --   3147.8290              3221.9721              3242.4563
 Red. masses --      1.1037                 1.0915                 1.0954
 Frc consts  --      6.4434                 6.6761                 6.7851
 IR Inten    --     56.3933                 2.1597                 2.2468

                    112                    113                    114
                      A                      A                      A
 Frequencies --   3257.9217              3286.9343              3371.2727
 Red. masses --      1.0869                 1.0917                 1.0854
 Frc consts  --      6.7971                 6.9490                 7.2685
 IR Inten    --   1084.2530                11.2630              1224.2744

 - Thermochemistry -
 -------------------
 Temperature   298.150 Kelvin.  Pressure   1.00000 Atm.
 Atom     1 has atomic number  6 and mass  12.00000

 Molecular mass:   353.08798 amu.
 Principal axes and moments of inertia in atomic units:
                           1         2         3
     Eigenvalues --  5238.03866********************
           X            0.99996  -0.00821  -0.00276
           Y            0.00818   0.99993  -0.00898
           Z            0.00284   0.00895   0.99996
 This molecule is an asymmetric top.
 Rotational symmetry number  1.
 Warning -- assumption of classical behavior for rotation
           may cause significant error
 Rotational temperatures (Kelvin)      0.01654     0.00474     0.00381
 Rotational constants (GHZ):           0.34455     0.09874     0.07945
 Zero-point vibrational energy     802509.1 (Joules/Mol)
                                  191.80429 (Kcal/Mol)
 Warning -- explicit consideration of  36 degrees of freedom as
           vibrations may cause significant error
 Vibrational temperatures:     21.91    29.90    31.85    52.35    61.26
          (Kelvin)             63.66    76.56    82.67    92.11    97.22
                              121.42   140.88   163.25   167.98   210.09
                              222.93   234.75   259.04   332.56   346.80
                              351.92   377.53   435.74   442.82   454.51
                              499.09   503.93   554.21   604.22   661.93
                              666.99   748.19   757.98   777.82   838.65
                              858.90   921.17   935.22   946.14   966.89
                             1014.48  1058.20  1077.96  1091.06  1110.72
                             1136.59  1170.42  1186.20  1230.56  1277.24
                             1303.23  1308.42  1334.53  1372.49  1428.74
                             1475.71  1504.78  1509.39  1554.68  1597.42
                             1598.67  1647.56  1648.90  1654.48  1679.54
                             1691.68  1698.70  1725.97  1839.64  1848.36
                             1863.30  1865.04  1873.43  1894.72  1916.53
                             1917.51  1947.96  1981.81  2038.90  2039.28
                             2053.37  2083.30  2105.21  2113.65  2135.04
                             2157.30  2158.78  2165.37  2170.08  2198.73
                             2205.02  2220.71  2302.25  2326.43  2376.41
                             2423.92  2472.51  4406.23  4411.62  4417.46
                             4423.74  4429.68  4448.76  4476.85  4476.91
                             4510.19  4522.33  4522.47  4529.02  4635.69
                             4665.17  4687.42  4729.16  4850.50

 Zero-point correction=                           0.305660 (Hartree/Particle)
 Thermal correction to Energy=                    0.330508
 Thermal correction to Enthalpy=                  0.331452
 Thermal correction to Gibbs Free Energy=         0.244935
 Sum of electronic and zero-point Energies=          -1638.440333
 Sum of electronic and thermal Energies=             -1638.415485
 Sum of electronic and thermal Enthalpies=           -1638.414540
 Sum of electronic and thermal Free Energies=        -1638.501057

                     E (Thermal)             CV                S
                      KCal/Mol        Cal/Mol-Kelvin    Cal/Mol-Kelvin
 Total                  207.397             86.425            182.090
 Electronic               0.000              0.000              0.000
 Translational            0.889              2.981             43.478
 Rotational               0.889              2.981             36.029
 Vibrational            205.619             80.463            102.583
 Vibration     1          0.593              1.986              7.176
 Vibration     2          0.593              1.986              6.558
 Vibration     3          0.593              1.985              6.433
 Vibration     4          0.594              1.982              5.447
 Vibration     5          0.595              1.980              5.135
 Vibration     6          0.595              1.980              5.059
 Vibration     7          0.596              1.976              4.694
 Vibration     8          0.596              1.975              4.543
 Vibration     9          0.597              1.971              4.329
 Vibration    10          0.598              1.970              4.223
 Vibration    11          0.601              1.960              3.786
 Vibration    12          0.603              1.951              3.495
 Vibration    13          0.607              1.938              3.209
 Vibration    14          0.608              1.935              3.153
 Vibration    15          0.617              1.907              2.723
 Vibration    16          0.620              1.897              2.611
 Vibration    17          0.623              1.888              2.513
 Vibration    18          0.629              1.867              2.328
 Vibration    19          0.653              1.793              1.870
 Vibration    20          0.658              1.778              1.795
 Vibration    21          0.660              1.772              1.769
 Vibration    22          0.670              1.742              1.646
 Vibration    23          0.694              1.668              1.401
 Vibration    24          0.698              1.659              1.374
 Vibration    25          0.703              1.643              1.331
 Vibration    26          0.725              1.582              1.180
 Vibration    27          0.727              1.575              1.165
 Vibration    28          0.754              1.502              1.019
 Vibration    29          0.783              1.427              0.892
 Vibration    30          0.818              1.339              0.766
 Vibration    31          0.821              1.331              0.756
 Vibration    32          0.875              1.206              0.610
 Vibration    33          0.882              1.191              0.594
 Vibration    34          0.896              1.160              0.564
 Vibration    35          0.940              1.068              0.480
 Vibration    36          0.955              1.038              0.455

 Optimization completed.
    -- Stationary point found.
 Normal termination of Gaussian 09 at Thu Nov 14 23:34:54 2019.
