 Gaussian 09, Revision E.01,

 ----------------------------------------------------------------------
 # M062X/6-311+G* SCF=Tight INT(grid=ultrafine) OPT IOP(2/17=4) Empiric
 alDispersion=GD3 maxdisk=2684354560
 ----------------------------------------------------------------------

 ------------------------------------
 29_c2_carboxy.M062X_6-311pGd_opt_GD3
 ------------------------------------
 Symbolic Z-matrix:
 Charge = -1 Multiplicity = 1

 SCF Done:  E(RM062X) =  -1638.67348664     A.U. after   16 cycles
 SCF Done:  E(RM062X) =  -1638.67348223     A.U. after   11 cycles
 SCF Done:  E(RM062X) =  -1638.67348679     A.U. after   12 cycles
 Optimization completed.
    -- Stationary point found.
 Normal termination of Gaussian 09 at Thu Nov 14 22:01:06 2019.
 Gaussian 09:  ES64L-G09RevE.01 30-Nov-2015

 ----------------------------------------------------------------------
 # M062X/6-311+G* SCF=Tight INT(grid=ultrafine) EmpiricalDispersion=GD3
  Freq=Noraman maxdisk=2684354560 geom=check guess=read IOP(2/17=4)
 ----------------------------------------------------------------------

 ------------------------------------
 29_c2_carboxy.M062X_6-311pGd_opt_GD3
 ------------------------------------
 Structure from the checkpoint file:  "29_c2_carboxy.M062X_6-311pGd_opt_GD3.chk"
 Charge = -1 Multiplicity = 1

                         Standard orientation:
 ---------------------------------------------------------------------
 Center     Atomic      Atomic             Coordinates (Angstroms)
 Number     Number       Type             X           Y           Z
 ---------------------------------------------------------------------
      1          6           0        0.678297   -1.005925    0.004133
      2          7           0       -0.685048   -0.809272    0.030822
      3          6           0       -1.672341   -1.783153   -0.021106
      4          8           0       -1.446337   -2.987803   -0.092177
      5          7           0       -2.920198   -1.259190    0.024550
      6          6           0       -4.077299   -2.114073   -0.108585
      7          6           0       -5.336168   -1.340030    0.262480
      8          6           0       -6.592295   -2.185958    0.080906
      9          6           0        1.482416    0.150855    0.041075
     10          6           0        2.865008    0.062913    0.021073
     11          6           0        3.482227   -1.189576   -0.037182
     12          6           0        2.700685   -2.331424   -0.074309
     13          6           0        1.313443   -2.255630   -0.053913
     14          1           0       -0.988451    0.183909    0.076710
     15          1           0       -3.065843   -0.239497   -0.022892
     16          1           0       -3.955097   -2.987631    0.539195
     17          1           0       -4.162493   -2.498834   -1.135018
     18          1           0       -5.392344   -0.431816   -0.344683
     19          1           0       -5.248709   -1.002639    1.299629
     20          1           0       -6.706624   -2.502763   -0.959772
     21          1           0       -7.491760   -1.631808    0.358896
     22          1           0       -6.553823   -3.089422    0.696857
     23          1           0        0.993090    1.118959    0.084684
     24          6           0        3.680223    1.325003    0.061926
     25         17           0        5.224914   -1.361333   -0.064775
     26          1           0        3.185685   -3.299637   -0.119470
     27          1           0        0.714344   -3.152976   -0.083294
     28          9           0        4.498788    1.369362    1.130065
     29          9           0        4.464130    1.461683   -1.024244
     30          9           0        2.918225    2.422740    0.121300
     31          8           0       -1.267701    1.882119    0.117319
     32          8           0       -3.461159    1.514176   -0.123704
     33          6           0       -2.461358    2.257467   -0.012186
     34          6           0       -2.684518    3.776931   -0.031622
     35          6           0       -4.140404    4.194377   -0.184430
     36          1           0       -2.069132    4.180508   -0.841733
     37          1           0       -2.252183    4.175853    0.891261
     38          1           0       -4.560124    3.799967   -1.111345
     39          1           0       -4.244634    5.283823   -0.191397
     40          1           0       -4.744899    3.793219    0.630813
 ---------------------------------------------------------------------

 SCF Done:  E(RM062X) =  -1638.67348679     A.U. after    2 cycles

 The electronic state is 1-A.
 Alpha  occ. eigenvalues -- -102.58944 -25.18450 -25.18163 -25.18161 -19.46788
 Alpha  occ. eigenvalues --  -19.44381 -19.44106 -14.65047 -14.63257 -10.71057
 Alpha  occ. eigenvalues --  -10.55128 -10.51551 -10.50584 -10.49801 -10.48408
 Alpha  occ. eigenvalues --  -10.46457 -10.46113 -10.45623 -10.44807 -10.44187
 Alpha  occ. eigenvalues --  -10.43520 -10.41609 -10.41572  -9.73219  -7.45729
 Alpha  occ. eigenvalues --   -7.45060  -7.45057  -1.37703  -1.28299  -1.27971
 Alpha  occ. eigenvalues --   -1.05587  -1.03435  -0.94229  -0.93564  -0.91410
 Alpha  occ. eigenvalues --   -0.90071  -0.84113  -0.79662  -0.78371  -0.74911
 Alpha  occ. eigenvalues --   -0.73799  -0.71057  -0.67602  -0.63809  -0.61810
 Alpha  occ. eigenvalues --   -0.61277  -0.60046  -0.59357  -0.58966  -0.57393
 Alpha  occ. eigenvalues --   -0.53410  -0.51617  -0.48793  -0.48288  -0.48147
 Alpha  occ. eigenvalues --   -0.47063  -0.45813  -0.45236  -0.44730  -0.44018
 Alpha  occ. eigenvalues --   -0.43261  -0.42696  -0.41956  -0.41533  -0.41143
 Alpha  occ. eigenvalues --   -0.40957  -0.40593  -0.39694  -0.38649  -0.38185
 Alpha  occ. eigenvalues --   -0.37752  -0.36778  -0.35928  -0.35191  -0.34238
 Alpha  occ. eigenvalues --   -0.33737  -0.33127  -0.32709  -0.32128  -0.30919
 Alpha  occ. eigenvalues --   -0.30572  -0.29778  -0.29088  -0.28735  -0.26145
 Alpha  occ. eigenvalues --   -0.23157  -0.23048  -0.20284  -0.19805  -0.19363
 Alpha  occ. eigenvalues --   -0.19150  -0.15607
 Alpha virt. eigenvalues --    0.09327   0.09696   0.09725   0.10498   0.10736
 Alpha virt. eigenvalues --    0.11161   0.11661   0.11916   0.12181   0.12513
 Alpha virt. eigenvalues --    0.13332   0.13733   0.14092   0.14306   0.14647

 Mulliken charges:
               1
     1  C   -0.350374
     2  N   -0.477747
     3  C    0.094215
     4  O   -0.402076
     5  N   -0.334632
     6  C   -0.494279
     7  C   -0.115454
     8  C   -1.077512
     9  C   -0.514023
    10  C   -1.170465
    11  C    0.843837
    12  C   -0.739528
    13  C    0.146166
    14  H    0.479174
    15  H    0.447637
    16  H    0.233501
    17  H    0.237744
    18  H    0.283890
    19  H    0.260748
    20  H    0.247614
    21  H    0.252701
    22  H    0.244723
    23  H    0.392933
    24  C    0.640294
    25  Cl   0.397582
    26  H    0.251726
    27  H    0.303002
    28  F   -0.048623
    29  F   -0.047809
    30  F   -0.129408
    31  O   -0.491067
    32  O   -0.426482
    33  C    0.017506
    34  C   -0.167119
    35  C   -1.024033
    36  H    0.245630
    37  H    0.245900
    38  H    0.256394
    39  H    0.230213
    40  H    0.257501
 Sum of Mulliken charges =  -1.00000

 Dipole moment (field-independent basis, Debye):
    X=              1.5095    Y=             -1.1080    Z=              0.0460  Tot=              1.8730
 Quadrupole moment (field-independent basis, Debye-Ang):
   XX=           -202.3479   YY=           -172.4248   ZZ=           -148.5581
   XY=              1.0646   XZ=             -1.0068   YZ=             -0.5234

  Exact polarizability: 307.865  -2.299 216.612   0.572   2.712 133.269
 Approx polarizability: 308.178  -0.777 255.342   1.062   4.025 178.533

                      1                      2                      3
                      A                      A                      A
 Frequencies --     16.2892                18.5225                29.0886
 Red. masses --      5.3751                 4.6330                 2.3493
 Frc consts  --      0.0008                 0.0009                 0.0012
 IR Inten    --      0.0923                 0.8266                 0.1496

                      4                      5                      6
                      A                      A                      A
 Frequencies --     38.0434                40.4370                44.5067
 Red. masses --      2.4834                 5.8711                 6.5061
 Frc consts  --      0.0021                 0.0057                 0.0076
 IR Inten    --      0.0399                 0.4873                 2.0603

                      7                      8                      9
                      A                      A                      A
 Frequencies --     50.7256                60.8477                62.8440
 Red. masses --      7.4406                 3.8495                 3.6680
 Frc consts  --      0.0113                 0.0084                 0.0085
 IR Inten    --      0.8423                 0.4294                 2.2630

                     10                     11                     12
                      A                      A                      A
 Frequencies --     68.7703                79.3581               102.4828
 Red. masses --      5.6681                 5.3965                 7.2454
 Frc consts  --      0.0158                 0.0200                 0.0448
 IR Inten    --      0.2670                 7.0758                 6.6617

                     13                     14                     15
                      A                      A                      A
 Frequencies --    120.1659               135.6368               146.0588
 Red. masses --      5.1487                 8.3227                 5.6508
 Frc consts  --      0.0438                 0.0902                 0.0710
 IR Inten    --      0.5198                 7.2681                 2.3768

                     16                     17                     18
                      A                      A                      A
 Frequencies --    167.7173               169.6812               193.7735
 Red. masses --      6.1876                 7.8716                 3.8540
 Frc consts  --      0.1025                 0.1335                 0.0853
 IR Inten    --      4.4858                14.7326                 8.7980

                     19                     20                     21
                      A                      A                      A
 Frequencies --    218.4832               221.3472               242.9440
 Red. masses --      7.0328                 1.1191                 1.1508
 Frc consts  --      0.1978                 0.0323                 0.0400
 IR Inten    --      4.2312                 0.4625                 0.2087

                     22                     23                     24
                      A                      A                      A
 Frequencies --    264.0430               298.4196               307.5754
 Red. masses --      5.5786                 3.9846                15.3965
 Frc consts  --      0.2292                 0.2091                 0.8582
 IR Inten    --      4.8106                11.2771                 3.1134

                     25                     26                     27
                      A                      A                      A
 Frequencies --    311.6746               346.8253               349.8013
 Red. masses --      7.1777                 4.7253                 6.6075
 Frc consts  --      0.4108                 0.3349                 0.4764
 IR Inten    --      0.2035                10.0744                 0.6866

                     28                     29                     30
                      A                      A                      A
 Frequencies --    364.9888               429.5208               468.6174
 Red. masses --      8.0466                 6.5253                 3.9404
 Frc consts  --      0.6316                 0.7093                 0.5098
 IR Inten    --      1.3449                15.9954                 1.6457

                     31                     32                     33
                      A                      A                      A
 Frequencies --    469.6365               521.3162               534.0739
 Red. masses --      6.6638                 5.8777                 6.2552
 Frc consts  --      0.8660                 0.9412                 1.0512
 IR Inten    --      1.9683                48.1418                12.6369

                     34                     35                     36
                      A                      A                      A
 Frequencies --    545.0275               584.3127               601.9989
 Red. masses --      7.8974                 1.9349                 9.2395
 Frc consts  --      1.3822                 0.3892                 1.9728
 IR Inten    --      6.1186                 0.3526                 4.3283

                     37                     38                     39
                      A                      A                      A
 Frequencies --    656.4218               659.8449               670.2232
 Red. masses --      4.8769                 4.5441                 8.3825
 Frc consts  --      1.2381                 1.1657                 2.2185
 IR Inten    --      1.8485                30.5004                14.4155

                     40                     41                     42
                      A                      A                      A
 Frequencies --    703.1281               739.9379               751.0501
 Red. masses --      7.0320                 4.9559                 1.1083
 Frc consts  --      2.0483                 1.5987                 0.3683
 IR Inten    --      9.0131                 1.5431                 2.0232

                     43                     44                     45
                      A                      A                      A
 Frequencies --    760.8234               782.0642               806.4987
 Red. masses --      5.8583                 3.0632                 4.2295
 Frc consts  --      1.9980                 1.1039                 1.6209
 IR Inten    --     10.6482                38.0187                13.8449

                     46                     47                     48
                      A                      A                      A
 Frequencies --    820.9999               826.8844               856.4815
 Red. masses --      1.7354                 1.5172                 1.3958
 Frc consts  --      0.6892                 0.6112                 0.6033
 IR Inten    --      1.4656                12.7092                44.1058

                     49                     50                     51
                      A                      A                      A
 Frequencies --    889.4050               901.1069               912.6389
 Red. masses --      4.0485                 1.1810                 2.4505
 Frc consts  --      1.8869                 0.5650                 1.2026
 IR Inten    --     52.3091                 3.1461                18.3046

                     52                     53                     54
                      A                      A                      A
 Frequencies --    941.1844               945.2954               977.0771
 Red. masses --      1.8201                 1.6262                 1.2199
 Frc consts  --      0.9499                 0.8562                 0.6862
 IR Inten    --     11.7948                 7.9998                91.5217

                     55                     56                     57
                      A                      A                      A
 Frequencies --    996.7050              1020.2106              1042.1434
 Red. masses --      1.2677                 1.6865                 6.0396
 Frc consts  --      0.7420                 1.0342                 3.8647
 IR Inten    --     19.4358                 3.9196                19.6569

                     58                     59                     60
                      A                      A                      A
 Frequencies --   1051.5144              1082.0384              1108.9650
 Red. masses --      3.8068                 2.8495                 1.7904
 Frc consts  --      2.4799                 1.9656                 1.2973
 IR Inten    --     23.2851                15.8066                 0.9698

                     61                     62                     63
                      A                      A                      A
 Frequencies --   1110.8540              1150.5936              1160.2402
 Red. masses --      2.3570                 2.7497                 2.3682
 Frc consts  --      1.7137                 2.1447                 1.8783
 IR Inten    --      4.2285                62.3844                40.6005

                     64                     65                     66
                      A                      A                      A
 Frequencies --   1166.6796              1180.8715              1181.0882
 Red. masses --      1.5250                 2.1163                 5.8727
 Frc consts  --      1.2230                 1.7387                 4.8268
 IR Inten    --      5.6328                62.0926               226.3064

                     67                     68                     69
                      A                      A                      A
 Frequencies --   1193.2259              1224.3493              1278.7133
 Red. masses --      3.5618                 4.7782                 1.1984
 Frc consts  --      2.9879                 4.2202                 1.1545
 IR Inten    --      8.1895               287.4264                 7.3447

                     70                     71                     72
                      A                      A                      A
 Frequencies --   1288.5984              1290.4242              1303.2074
 Red. masses --      3.6647                 1.1844                 1.6609
 Frc consts  --      3.5853                 1.1621                 1.6620
 IR Inten    --    147.5410                 0.5504               157.6689

                     73                     74                     75
                      A                      A                      A
 Frequencies --   1318.4077              1329.2452              1331.5684
 Red. masses --      1.5328                 1.6891                 1.2190
 Frc consts  --      1.5698                 1.7584                 1.2735
 IR Inten    --    195.0029                56.9535                80.4509

                     76                     77                     78
                      A                      A                      A
 Frequencies --   1345.5357              1370.6827              1387.7405
 Red. masses --      2.8740                 1.9858                 3.5312
 Frc consts  --      3.0657                 2.1981                 4.0067
 IR Inten    --     80.9210               260.6844               324.1481

                     79                     80                     81
                      A                      A                      A
 Frequencies --   1417.8365              1421.5349              1430.6984
 Red. masses --      1.3157                 1.2919                 1.6519
 Frc consts  --      1.5583                 1.5381                 1.9922
 IR Inten    --     19.2907                 4.3859                 2.2712

                     82                     83                     84
                      A                      A                      A
 Frequencies --   1461.2370              1464.9952              1484.8709
 Red. masses --      4.3507                 4.2816                 1.1835
 Frc consts  --      5.4733                 5.4141                 1.5374
 IR Inten    --    422.2262               108.7228                19.8116

                     85                     86                     87
                      A                      A                      A
 Frequencies --   1507.8935              1510.1486              1520.8950
 Red. masses --      1.0653                 1.0380                 1.0828
 Frc consts  --      1.4271                 1.3947                 1.4757
 IR Inten    --      6.4259                 6.4060                47.3138

                     88                     89                     90
                      A                      A                      A
 Frequencies --   1521.9946              1525.4568              1539.3261
 Red. masses --      1.0415                 1.0649                 1.0985
 Frc consts  --      1.4214                 1.4600                 1.5335
 IR Inten    --      8.3945                 1.8056                28.5112

                     91                     92                     93
                      A                      A                      A
 Frequencies --   1546.4028              1616.8685              1640.5618
 Red. masses --      3.1803                 3.1578                 3.3853
 Frc consts  --      4.4809                 4.8639                 5.3682
 IR Inten    --    291.9570               108.3324                81.8568

                     94                     95                     96
                      A                      A                      A
 Frequencies --   1672.5822              1687.4199              1712.4021
 Red. masses --      5.0455                 2.6533                 2.9333
 Frc consts  --      8.3163                 4.4512                 5.0678
 IR Inten    --    411.8222               328.1442               798.9374

                     97                     98                     99
                      A                      A                      A
 Frequencies --   1789.2993              3015.1959              3053.9156
 Red. masses --      2.5085                 1.0716                 1.0874
 Frc consts  --      4.7318                 5.7402                 5.9753
 IR Inten    --    351.8425                72.8168              1095.4219

                    100                    101                    102
                      A                      A                      A
 Frequencies --   3055.5095              3060.5701              3072.3595
 Red. masses --      1.0367                 1.0510                 1.0604
 Frc consts  --      5.7024                 5.8002                 5.8972
 IR Inten    --     50.5401                32.9981                21.8170

                    103                    104                    105
                      A                      A                      A
 Frequencies --   3076.0913              3082.1442              3102.6848
 Red. masses --      1.0631                 1.0898                 1.1012
 Frc consts  --      5.9268                 6.0994                 6.2460
 IR Inten    --     14.8478                49.3628                10.6270

                    106                    107                    108
                      A                      A                      A
 Frequencies --   3105.5898              3128.8714              3129.2398
 Red. masses --      1.1020                 1.1009                 1.0965
 Frc consts  --      6.2621                 6.3498                 6.3258
 IR Inten    --      0.4952                46.8541                44.5888

                    109                    110                    111
                      A                      A                      A
 Frequencies --   3129.6459              3149.0998              3213.7570
 Red. masses --      1.1037                 1.1023                 1.0927
 Frc consts  --      6.3691                 6.4404                 6.6493
 IR Inten    --     58.7618                37.5480                 5.5642

                    112                    113                    114
                      A                      A                      A
 Frequencies --   3223.3656              3241.7806              3285.0417
 Red. masses --      1.0914                 1.0893                 1.0919
 Frc consts  --      6.6809                 6.7445                 6.9424
 IR Inten    --     10.7279              1361.2404                 8.6080

 - Thermochemistry -
 -------------------
 Temperature   298.150 Kelvin.  Pressure   1.00000 Atm.
 Atom     1 has atomic number  6 and mass  12.00000

 Molecular mass:   353.08798 amu.
 Principal axes and moments of inertia in atomic units:
                           1         2         3
     Eigenvalues --  5412.76314********************
           X            0.99998  -0.00648  -0.00030
           Y            0.00647   0.99998  -0.00180
           Z            0.00031   0.00180   1.00000
 This molecule is an asymmetric top.
 Rotational symmetry number  1.
 Warning -- assumption of classical behavior for rotation
           may cause significant error
 Rotational temperatures (Kelvin)      0.01600     0.00523     0.00402
 Rotational constants (GHZ):           0.33342     0.10908     0.08369
 Zero-point vibrational energy     805909.3 (Joules/Mol)
                                  192.61694 (Kcal/Mol)
 Warning -- explicit consideration of  36 degrees of freedom as
           vibrations may cause significant error
 Vibrational temperatures:     23.44    26.65    41.85    54.74    58.18
          (Kelvin)             64.04    72.98    87.55    90.42    98.95
                              114.18   147.45   172.89   195.15   210.15
                              241.31   244.13   278.80   314.35   318.47
                              349.54   379.90   429.36   442.53   448.43
                              499.00   503.29   525.14   617.98   674.24
                              675.70   750.06   768.41   784.17   840.69
                              866.14   944.44   949.37   964.30  1011.64
                             1064.60  1080.59  1094.65  1125.21  1160.37
                             1181.23  1189.70  1232.28  1279.65  1296.49
                             1313.08  1354.15  1360.07  1405.79  1434.03
                             1467.85  1499.41  1512.89  1556.81  1595.55
                             1598.27  1655.45  1669.32  1678.59  1699.01
                             1699.32  1716.78  1761.56  1839.78  1854.00
                             1856.63  1875.02  1896.89  1912.49  1915.83
                             1935.92  1972.10  1996.65  2039.95  2045.27
                             2058.45  2102.39  2107.80  2136.40  2169.52
                             2172.76  2188.23  2189.81  2194.79  2214.74
                             2224.93  2326.31  2360.40  2406.47  2427.82
                             2463.76  2574.40  4338.19  4393.90  4396.19
                             4403.47  4420.43  4425.80  4434.51  4464.07
                             4468.25  4501.74  4502.27  4502.86  4530.85
                             4623.87  4637.70  4664.19  4726.44

 Zero-point correction=                           0.306955 (Hartree/Particle)
 Thermal correction to Energy=                    0.331603
 Thermal correction to Enthalpy=                  0.332548
 Thermal correction to Gibbs Free Energy=         0.246699
 Sum of electronic and zero-point Energies=          -1638.366532
 Sum of electronic and thermal Energies=             -1638.341883
 Sum of electronic and thermal Enthalpies=           -1638.340939
 Sum of electronic and thermal Free Energies=        -1638.426788

                     E (Thermal)             CV                S
                      KCal/Mol        Cal/Mol-Kelvin    Cal/Mol-Kelvin
 Total                  208.084             85.552            180.684
 Electronic               0.000              0.000              0.000
 Translational            0.889              2.981             43.478
 Rotational               0.889              2.981             35.911
 Vibrational            206.307             79.590            101.294
 Vibration     1          0.593              1.986              7.042
 Vibration     2          0.593              1.986              6.787
 Vibration     3          0.593              1.984              5.891
 Vibration     4          0.594              1.982              5.358
 Vibration     5          0.594              1.981              5.238
 Vibration     6          0.595              1.980              5.048
 Vibration     7          0.595              1.977              4.789
 Vibration     8          0.597              1.973              4.430
 Vibration     9          0.597              1.972              4.366
 Vibration    10          0.598              1.969              4.188
 Vibration    11          0.600              1.963              3.907
 Vibration    12          0.605              1.947              3.407
 Vibration    13          0.609              1.932              3.098
 Vibration    14          0.613              1.918              2.865
 Vibration    15          0.617              1.907              2.723
 Vibration    16          0.624              1.882              2.461
 Vibration    17          0.625              1.880              2.439
 Vibration    18          0.635              1.849              2.191
 Vibration    19          0.646              1.813              1.972
 Vibration    20          0.648              1.809              1.948
 Vibration    21          0.659              1.774              1.781
 Vibration    22          0.671              1.739              1.635
 Vibration    23          0.692              1.677              1.426
 Vibration    24          0.697              1.659              1.375
 Vibration    25          0.700              1.651              1.353
 Vibration    26          0.725              1.582              1.181
 Vibration    27          0.727              1.576              1.167
 Vibration    28          0.738              1.544              1.101
 Vibration    29          0.791              1.406              0.860
 Vibration    30          0.826              1.320              0.741
 Vibration    31          0.827              1.317              0.739
 Vibration    32          0.876              1.203              0.607
 Vibration    33          0.889              1.175              0.578
 Vibration    34          0.900              1.151              0.555
 Vibration    35          0.941              1.065              0.477
 Vibration    36          0.960              1.028              0.446

 Normal termination of Gaussian 09 at Thu Nov 14 23:28:04 2019.
