 Gaussian 16, Revision C.01,
 Gaussian 16:  ES64L-G16RevC.01  3-Jul-2019

 ----------------------------------------------------------------------
 # DSDPBEP86/AUG-cc-PVTZ SCF=Tight INT(grid=ultrafine) IOP(8/23=30) Max
 Disk=1400000MB
 ----------------------------------------------------------------------

 -----------------------------------
 29_c2_carboxy.DSDPBEP86_AUG-cc-PVTZ
 -----------------------------------
 Symbolic Z-matrix:
 Charge = -1 Multiplicity = 1

                         Standard orientation:
 ---------------------------------------------------------------------
 Center     Atomic      Atomic             Coordinates (Angstroms)
 Number     Number       Type             X           Y           Z
 ---------------------------------------------------------------------
      1          6           0        0.678297   -1.005925    0.004133
      2          7           0       -0.685048   -0.809272    0.030822
      3          6           0       -1.672341   -1.783153   -0.021106
      4          8           0       -1.446337   -2.987803   -0.092177
      5          7           0       -2.920198   -1.259190    0.024550
      6          6           0       -4.077299   -2.114073   -0.108585
      7          6           0       -5.336168   -1.340030    0.262480
      8          6           0       -6.592295   -2.185958    0.080906
      9          6           0        1.482416    0.150855    0.041075
     10          6           0        2.865008    0.062913    0.021073
     11          6           0        3.482227   -1.189576   -0.037182
     12          6           0        2.700685   -2.331424   -0.074309
     13          6           0        1.313443   -2.255630   -0.053913
     14          1           0       -0.988451    0.183909    0.076710
     15          1           0       -3.065843   -0.239497   -0.022892
     16          1           0       -3.955097   -2.987631    0.539195
     17          1           0       -4.162493   -2.498834   -1.135018
     18          1           0       -5.392344   -0.431816   -0.344683
     19          1           0       -5.248709   -1.002639    1.299629
     20          1           0       -6.706624   -2.502763   -0.959772
     21          1           0       -7.491760   -1.631808    0.358896
     22          1           0       -6.553823   -3.089422    0.696857
     23          1           0        0.993090    1.118959    0.084684
     24          6           0        3.680223    1.325003    0.061926
     25         17           0        5.224914   -1.361333   -0.064775
     26          1           0        3.185685   -3.299637   -0.119470
     27          1           0        0.714344   -3.152976   -0.083294
     28          9           0        4.498788    1.369362    1.130065
     29          9           0        4.464130    1.461683   -1.024244
     30          9           0        2.918225    2.422740    0.121300
     31          8           0       -1.267701    1.882119    0.117319
     32          8           0       -3.461159    1.514176   -0.123704
     33          6           0       -2.461358    2.257467   -0.012186
     34          6           0       -2.684518    3.776931   -0.031622
     35          6           0       -4.140404    4.194377   -0.184430
     36          1           0       -2.069132    4.180508   -0.841733
     37          1           0       -2.252183    4.175853    0.891261
     38          1           0       -4.560124    3.799967   -1.111345
     39          1           0       -4.244634    5.283823   -0.191397
     40          1           0       -4.744899    3.793219    0.630813
 ---------------------------------------------------------------------

 SCF Done:  E(RDSDPBEP86) =  -1634.82252547     A.U. after   14 cycles
 E2(DSDPBEP86) =    -0.2210009753D+01 E(DSDPBEP86) =    -0.16370325352246D+04

 The electronic state is 1-A.
 Alpha  occ. eigenvalues -- -103.48223 -25.61623 -25.61364 -25.61362 -19.84308
 Alpha  occ. eigenvalues --  -19.81951 -19.81660 -14.97915 -14.96054 -10.99244
 Alpha  occ. eigenvalues --  -10.83261 -10.79339 -10.78714 -10.77657 -10.76099
 Alpha  occ. eigenvalues --  -10.74207 -10.73624 -10.73210 -10.72382 -10.71861
 Alpha  occ. eigenvalues --  -10.71070 -10.69502 -10.69448 -10.05717  -7.63393
 Alpha  occ. eigenvalues --   -7.62930  -7.62925  -1.48079  -1.38681  -1.38381
 Alpha  occ. eigenvalues --   -1.14565  -1.12451  -1.02733  -1.02167  -0.99428
 Alpha  occ. eigenvalues --   -0.97899  -0.91361  -0.86678  -0.85354  -0.82097
 Alpha  occ. eigenvalues --   -0.80378  -0.76868  -0.73580  -0.68981  -0.67210
 Alpha  occ. eigenvalues --   -0.66708  -0.64243  -0.64235  -0.63458  -0.62136
 Alpha  occ. eigenvalues --   -0.57928  -0.55578  -0.52845  -0.52684  -0.52468
 Alpha  occ. eigenvalues --   -0.50995  -0.49713  -0.48951  -0.48376  -0.48194
 Alpha  occ. eigenvalues --   -0.47014  -0.46497  -0.46352  -0.44774  -0.44551
 Alpha  occ. eigenvalues --   -0.44070  -0.43922  -0.43212  -0.42051  -0.41250
 Alpha  occ. eigenvalues --   -0.40778  -0.39748  -0.38559  -0.38294  -0.36878
 Alpha  occ. eigenvalues --   -0.36817  -0.36205  -0.35554  -0.34289  -0.33904
 Alpha  occ. eigenvalues --   -0.33120  -0.32317  -0.31536  -0.31485  -0.28001
 Alpha  occ. eigenvalues --   -0.25954  -0.23552  -0.22560  -0.22260  -0.21950
 Alpha  occ. eigenvalues --   -0.21740  -0.16362
 Alpha virt. eigenvalues --    0.08184   0.09042   0.09323   0.10051   0.10213
 Alpha virt. eigenvalues --    0.11069   0.11171   0.11337   0.11899   0.12519
 Alpha virt. eigenvalues --    0.12671   0.12978   0.13378   0.13426   0.13952

 Mulliken charges:
               1
     1  C    0.640735
     2  N   -0.585562
     3  C   -0.016968
     4  O   -0.996828
     5  N   -0.207968
     6  C   -0.455301
     7  C   -0.436725
     8  C   -1.009727
     9  C   -1.276730
    10  C    0.418822
    11  C    0.739954
    12  C   -0.874766
    13  C   -0.395458
    14  H    0.822624
    15  H    0.876324
    16  H    0.358742
    17  H    0.236650
    18  H    0.297076
    19  H    0.223650
    20  H    0.267051
    21  H    0.267873
    22  H    0.270261
    23  H    0.494394
    24  C    1.162136
    25  Cl  -0.528491
    26  H    0.408152
    27  H    0.616347
    28  F   -0.426710
    29  F   -0.425864
    30  F   -0.349279
    31  O   -0.889367
    32  O   -0.843265
    33  C    0.656736
    34  C   -0.277842
    35  C   -0.926765
    36  H    0.197144
    37  H    0.188872
    38  H    0.252279
    39  H    0.266415
    40  H    0.261381
 Sum of Mulliken charges =  -1.00000

 Dipole moment (field-independent basis, Debye):
    X=              1.6851    Y=             -0.8670    Z=              0.0556  Tot=              1.8959
 Quadrupole moment (field-independent basis, Debye-Ang):
   XX=           -203.8995   YY=           -172.5905   ZZ=           -147.2674
   XY=              1.1056   XZ=             -0.9724   YZ=             -0.5470

 Normal termination of Gaussian 16 at Sat Sep 19 17:58:57 2020.
