 Gaussian 09, Revision E.01,

 ----------------------------------------------------------------------
 # M062X/6-311+G* SCF=Tight INT(grid=ultrafine) OPT IOP(2/17=4) Empiric
 alDispersion=GD3 SCRF=(SMD,Solvent=n-Pentadecane) maxdisk=2684354560
 ----------------------------------------------------------------------

 ------------------------------------------------
 29_c2_carboxy.M062X_6-311pGd_opt_Pentadecane_GD3
 ------------------------------------------------
 Symbolic Z-matrix:
 Charge = -1 Multiplicity = 1

 SCF Done:  E(RM062X) =  -1638.71402613     A.U. after   16 cycles
 SCF Done:  E(RM062X) =  -1638.71402619     A.U. after    8 cycles
 SCF Done:  E(RM062X) =  -1638.71402600     A.U. after   10 cycles
 SCF Done:  E(RM062X) =  -1638.71402625     A.U. after   10 cycles
 Optimization completed.
    -- Stationary point found.
 Normal termination of Gaussian 09 at Thu Nov 14 22:07:13 2019.
 Gaussian 09:  ES64L-G09RevE.01 30-Nov-2015

 ----------------------------------------------------------------------
 # M062X/6-311+G* SCF=Tight INT(grid=ultrafine) SCRF=(SMD,Solvent=n-Pen
 tadecane) EmpiricalDispersion=GD3 Freq=Noraman maxdisk=2684354560 geom
 =check guess=read IOP(2/17=4)
 ----------------------------------------------------------------------

 ------------------------------------------------
 29_c2_carboxy.M062X_6-311pGd_opt_Pentadecane_GD3
 ------------------------------------------------
 Structure from the checkpoint file:  "29_c2_carboxy.M062X_6-311pGd_opt_Pentadecane_GD3.chk"
 Charge = -1 Multiplicity = 1

                         Standard orientation:
 ---------------------------------------------------------------------
 Center     Atomic      Atomic             Coordinates (Angstroms)
 Number     Number       Type             X           Y           Z
 ---------------------------------------------------------------------
      1          6           0        0.677536   -1.009977   -0.002555
      2          7           0       -0.688267   -0.811353    0.018185
      3          6           0       -1.677541   -1.781603   -0.031732
      4          8           0       -1.450631   -2.987524   -0.093015
      5          7           0       -2.925204   -1.258612    0.005874
      6          6           0       -4.087421   -2.112690   -0.119182
      7          6           0       -5.340796   -1.349861    0.289666
      8          6           0       -6.595542   -2.199601    0.125282
      9          6           0        1.481315    0.145367    0.043557
     10          6           0        2.863707    0.057293    0.025794
     11          6           0        3.481283   -1.194451   -0.037444
     12          6           0        2.700525   -2.336462   -0.081684
     13          6           0        1.313274   -2.258556   -0.064631
     14          1           0       -0.989015    0.181410    0.069441
     15          1           0       -3.067325   -0.240810   -0.065458
     16          1           0       -3.951139   -2.994156    0.513416
     17          1           0       -4.192329   -2.478603   -1.149844
     18          1           0       -5.417193   -0.436890   -0.308423
     19          1           0       -5.232843   -1.025967    1.329375
     20          1           0       -6.732782   -2.504874   -0.916088
     21          1           0       -7.490436   -1.651560    0.429025
     22          1           0       -6.541423   -3.108828    0.731410
     23          1           0        0.994973    1.114176    0.092048
     24          6           0        3.677534    1.319747    0.070106
     25         17           0        5.223442   -1.362491   -0.063492
     26          1           0        3.182492   -3.305969   -0.130149
     27          1           0        0.718304   -3.157972   -0.099932
     28          9           0        4.499788    1.362136    1.134878
     29          9           0        4.456738    1.462662   -1.018205
     30          9           0        2.913784    2.416228    0.137055
     31          8           0       -1.264566    1.887851    0.138423
     32          8           0       -3.442058    1.527121   -0.208009
     33          6           0       -2.452562    2.271055   -0.028725
     34          6           0       -2.675934    3.787968   -0.006474
     35          6           0       -4.124248    4.217010   -0.185747
     36          1           0       -2.039535    4.216970   -0.786948
     37          1           0       -2.269341    4.158078    0.939819
     38          1           0       -4.523715    3.855242   -1.134888
     39          1           0       -4.219555    5.306843   -0.166281
     40          1           0       -4.754878    3.804762    0.604308
 ---------------------------------------------------------------------

 SCF Done:  E(RM062X) =  -1638.71402625     A.U. after    2 cycles

 The electronic state is 1-A.
 Alpha  occ. eigenvalues -- -102.63840 -25.23580 -25.23276 -25.23274 -19.52190
 Alpha  occ. eigenvalues --  -19.49893 -19.49646 -14.70469 -14.68626 -10.76175
 Alpha  occ. eigenvalues --  -10.60538 -10.56601 -10.56029 -10.55026 -10.53518
 Alpha  occ. eigenvalues --  -10.51375 -10.50881 -10.50813 -10.49933 -10.48054
 Alpha  occ. eigenvalues --  -10.47997 -10.46634 -10.46361  -9.78115  -7.50625
 Alpha  occ. eigenvalues --   -7.49953  -7.49952  -1.42836  -1.33427  -1.33097
 Alpha  occ. eigenvalues --   -1.10976  -1.08941  -0.99578  -0.98978  -0.96568
 Alpha  occ. eigenvalues --   -0.95203  -0.89189  -0.84738  -0.82919  -0.79939
 Alpha  occ. eigenvalues --   -0.78875  -0.76156  -0.72272  -0.68936  -0.66878
 Alpha  occ. eigenvalues --   -0.66323  -0.65174  -0.64199  -0.64064  -0.62313
 Alpha  occ. eigenvalues --   -0.58608  -0.56887  -0.53935  -0.53417  -0.53270
 Alpha  occ. eigenvalues --   -0.52215  -0.51023  -0.50147  -0.49629  -0.49139
 Alpha  occ. eigenvalues --   -0.48331  -0.47733  -0.47082  -0.46647  -0.46227
 Alpha  occ. eigenvalues --   -0.46073  -0.45688  -0.44690  -0.43660  -0.43144
 Alpha  occ. eigenvalues --   -0.43043  -0.41615  -0.40580  -0.40221  -0.39519
 Alpha  occ. eigenvalues --   -0.38647  -0.38133  -0.37294  -0.37124  -0.35885
 Alpha  occ. eigenvalues --   -0.35120  -0.34312  -0.34003  -0.33772  -0.31321
 Alpha  occ. eigenvalues --   -0.28496  -0.28224  -0.25738  -0.25257  -0.24826
 Alpha  occ. eigenvalues --   -0.24644  -0.20907
 Alpha virt. eigenvalues --    0.04580   0.05559   0.05713   0.05894   0.06605
 Alpha virt. eigenvalues --    0.07002   0.07476   0.07894   0.08199   0.08345
 Alpha virt. eigenvalues --    0.09136   0.09386   0.09801   0.10027   0.10504

 Mulliken charges:
               1
     1  C   -0.317715
     2  N   -0.495450
     3  C    0.119413
     4  O   -0.421915
     5  N   -0.335540
     6  C   -0.498427
     7  C   -0.129661
     8  C   -1.086168
     9  C   -0.508624
    10  C   -1.178973
    11  C    0.833047
    12  C   -0.742078
    13  C    0.112565
    14  H    0.478804
    15  H    0.444552
    16  H    0.240573
    17  H    0.247832
    18  H    0.279335
    19  H    0.265924
    20  H    0.256619
    21  H    0.263191
    22  H    0.254314
    23  H    0.387155
    24  C    0.649830
    25  Cl   0.399742
    26  H    0.274751
    27  H    0.306989
    28  F   -0.050915
    29  F   -0.050576
    30  F   -0.133381
    31  O   -0.510243
    32  O   -0.448185
    33  C    0.029452
    34  C   -0.178386
    35  C   -1.031132
    36  H    0.254759
    37  H    0.255084
    38  H    0.259010
    39  H    0.244460
    40  H    0.259968
 Sum of Mulliken charges =  -1.00000

 Dipole moment (field-independent basis, Debye):
    X=              1.4664    Y=             -1.3057    Z=              0.1128  Tot=              1.9667
 Quadrupole moment (field-independent basis, Debye-Ang):
   XX=           -196.5252   YY=           -169.5816   ZZ=           -148.4704
   XY=              0.3486   XZ=             -1.6656   YZ=             -0.3834

  Exact polarizability: 335.896  -1.830 241.444   1.356   3.858 147.799
 Approx polarizability: 306.538  -0.844 254.339   2.075   4.427 178.369

                      1                      2                      3
                      A                      A                      A
 Frequencies --     22.2005                26.5354                38.1677
 Red. masses --      5.4793                 5.2908                 4.7429
 Frc consts  --      0.0016                 0.0022                 0.0041
 IR Inten    --      0.5852                 0.3566                 1.8302

                      4                      5                      6
                      A                      A                      A
 Frequencies --     39.5717                49.2743                50.7143
 Red. masses --      3.9080                 3.2992                 7.0916
 Frc consts  --      0.0036                 0.0047                 0.0107
 IR Inten    --      1.5369                 0.4461                 1.5238

                      7                      8                      9
                      A                      A                      A
 Frequencies --     57.3155                63.2272                69.2918
 Red. masses --      5.0226                 3.5038                 3.5892
 Frc consts  --      0.0097                 0.0083                 0.0102
 IR Inten    --      0.9212                 2.5067                 1.1679

                     10                     11                     12
                      A                      A                      A
 Frequencies --     76.9172                86.8923               109.0560
 Red. masses --      3.0147                 5.0468                 6.8886
 Frc consts  --      0.0105                 0.0225                 0.0483
 IR Inten    --      0.8577                 6.9759                 7.9635

                     13                     14                     15
                      A                      A                      A
 Frequencies --    121.4306               136.6482               148.9671
 Red. masses --      5.3610                 8.1524                 6.2587
 Frc consts  --      0.0466                 0.0897                 0.0818
 IR Inten    --      1.0324                 9.4404                 3.4134

                     16                     17                     18
                      A                      A                      A
 Frequencies --    169.5129               170.0635               198.6099
 Red. masses --      6.7111                 7.4216                 3.5958
 Frc consts  --      0.1136                 0.1265                 0.0836
 IR Inten    --      5.1840                18.8581                 8.2067

                     19                     20                     21
                      A                      A                      A
 Frequencies --    217.9459               236.4737               245.5843
 Red. masses --      7.1240                 1.1051                 1.1586
 Frc consts  --      0.1994                 0.0364                 0.0412
 IR Inten    --      4.2558                 0.6400                 0.2531

                     22                     23                     24
                      A                      A                      A
 Frequencies --    263.1444               298.8387               307.5440
 Red. masses --      5.4643                 4.0052                15.4237
 Frc consts  --      0.2229                 0.2107                 0.8595
 IR Inten    --      5.1264                12.6291                 3.7730

                     25                     26                     27
                      A                      A                      A
 Frequencies --    313.7038               346.3993               351.0377
 Red. masses --      7.2225                 4.7464                 6.5502
 Frc consts  --      0.4188                 0.3356                 0.4756
 IR Inten    --      0.1873                14.1272                 0.5591

                     28                     29                     30
                      A                      A                      A
 Frequencies --    366.0321               429.5613               468.9700
 Red. masses --      7.9355                 6.5653                 4.4806
 Frc consts  --      0.6264                 0.7138                 0.5806
 IR Inten    --      1.1975                20.1708                 2.2042

                     31                     32                     33
                      A                      A                      A
 Frequencies --    469.7389               522.7896               533.6247
 Red. masses --      5.5666                 5.9193                 6.2013
 Frc consts  --      0.7237                 0.9532                 1.0404
 IR Inten    --      2.5343                60.7653                12.4087

                     34                     35                     36
                      A                      A                      A
 Frequencies --    544.0841               586.0711               601.8573
 Red. masses --      7.6594                 1.9231                 9.2561
 Frc consts  --      1.3359                 0.3892                 1.9754
 IR Inten    --      8.5197                 0.6137                 4.5527

                     37                     38                     39
                      A                      A                      A
 Frequencies --    654.8090               661.2886               669.4828
 Red. masses --      5.0047                 4.5897                 8.3726
 Frc consts  --      1.2643                 1.1825                 2.2110
 IR Inten    --      2.1683                39.1542                17.4757

                     40                     41                     42
                      A                      A                      A
 Frequencies --    702.8681               738.1895               756.6246
 Red. masses --      6.9018                 4.7920                 1.4177
 Frc consts  --      2.0089                 1.5385                 0.4782
 IR Inten    --     11.9587                 1.3648                 3.4442

                     43                     44                     45
                      A                      A                      A
 Frequencies --    759.7315               778.8933               806.2319
 Red. masses --      2.5176                 3.1243                 3.8360
 Frc consts  --      0.8562                 1.1167                 1.4691
 IR Inten    --     19.4285                47.3926                15.7709

                     46                     47                     48
                      A                      A                      A
 Frequencies --    819.9848               827.2003               858.7252
 Red. masses --      1.9704                 1.4841                 1.3948
 Frc consts  --      0.7806                 0.5983                 0.6060
 IR Inten    --      3.0937                13.0345                55.3749

                     49                     50                     51
                      A                      A                      A
 Frequencies --    891.4049               902.7205               913.7453
 Red. masses --      3.9225                 1.1891                 2.5186
 Frc consts  --      1.8364                 0.5709                 1.2390
 IR Inten    --     56.1456                 5.2163                21.8388

                     52                     53                     54
                      A                      A                      A
 Frequencies --    934.4662               944.0144               967.5312
 Red. masses --      1.2599                 2.4599                 1.2492
 Frc consts  --      0.6482                 1.2916                 0.6890
 IR Inten    --     15.4517                15.3419               116.1950

                     55                     56                     57
                      A                      A                      A
 Frequencies --    995.8898              1025.0782              1042.4058
 Red. masses --      1.2918                 1.6745                 6.0253
 Frc consts  --      0.7548                 1.0367                 3.8575
 IR Inten    --      6.7796                 5.8879                23.6560

                     58                     59                     60
                      A                      A                      A
 Frequencies --   1052.5509              1082.3418              1109.6481
 Red. masses --      3.9218                 2.7369                 1.7910
 Frc consts  --      2.5599                 1.8890                 1.2993
 IR Inten    --     26.9079                17.4215                 0.8303

                     61                     62                     63
                      A                      A                      A
 Frequencies --   1113.2235              1149.7990              1159.0771
 Red. masses --      2.3339                 2.8691                 2.3859
 Frc consts  --      1.7041                 2.2348                 1.8885
 IR Inten    --      5.8025                82.3453                41.7575

                     64                     65                     66
                      A                      A                      A
 Frequencies --   1166.6353              1168.3777              1179.9311
 Red. masses --      1.6050                12.6250                 2.0386
 Frc consts  --      1.2870                10.1543                 1.6722
 IR Inten    --     23.4559               319.9592                25.6486

                     67                     68                     69
                      A                      A                      A
 Frequencies --   1189.1111              1213.3270              1280.9562
 Red. masses --      2.7169                 3.9570                 1.2027
 Frc consts  --      2.2634                 3.4322                 1.1627
 IR Inten    --      4.6994               333.2089                13.1092

                     70                     71                     72
                      A                      A                      A
 Frequencies --   1285.2027              1293.7735              1301.4988
 Red. masses --      3.3083                 1.1806                 1.7108
 Frc consts  --      3.2196                 1.1643                 1.7074
 IR Inten    --    192.6540                 0.3444               158.1693

                     73                     74                     75
                      A                      A                      A
 Frequencies --   1315.3581              1331.0785              1332.7092
 Red. masses --      1.6512                 1.2479                 1.6529
 Frc consts  --      1.6832                 1.3027                 1.7297
 IR Inten    --    357.8611                69.6048                48.8558

                     76                     77                     78
                      A                      A                      A
 Frequencies --   1342.7980              1366.1816              1383.6447
 Red. masses --      2.6623                 1.9532                 3.5895
 Frc consts  --      2.8283                 2.1479                 4.0488
 IR Inten    --     86.9371               302.2053               399.5553

                     79                     80                     81
                      A                      A                      A
 Frequencies --   1421.4843              1422.6780              1429.7017
 Red. masses --      1.3187                 1.3176                 1.6023
 Frc consts  --      1.5699                 1.5713                 1.9297
 IR Inten    --     17.7336                 8.7516                 6.0787

                     82                     83                     84
                      A                      A                      A
 Frequencies --   1461.8127              1464.1534              1479.1123
 Red. masses --      3.5193                 3.8128                 1.3041
 Frc consts  --      4.4309                 4.8158                 1.6810
 IR Inten    --    423.6827               138.7889                54.5901

                     85                     86                     87
                      A                      A                      A
 Frequencies --   1504.4810              1509.8742              1517.2481
 Red. masses --      1.0612                 1.0382                 1.0405
 Frc consts  --      1.4152                 1.3945                 1.4112
 IR Inten    --      6.3789                 9.3748                10.9509

                     88                     89                     90
                      A                      A                      A
 Frequencies --   1519.4967              1521.6669              1536.2222
 Red. masses --      1.0843                 1.0704                 1.0993
 Frc consts  --      1.4750                 1.4603                 1.5285
 IR Inten    --     55.6717                 1.3421                33.5379

                     91                     92                     93
                      A                      A                      A
 Frequencies --   1543.9592              1614.8325              1638.0825
 Red. masses --      3.1354                 3.1033                 3.4819
 Frc consts  --      4.4037                 4.7680                 5.5047
 IR Inten    --    357.1127               104.5518               135.9380

                     94                     95                     96
                      A                      A                      A
 Frequencies --   1668.8369              1681.3304              1704.7320
 Red. masses --      3.8238                 3.5652                 2.8837
 Frc consts  --      6.2744                 5.9380                 4.9375
 IR Inten    --    845.2132               223.4255               703.2811

                     97                     98                     99
                      A                      A                      A
 Frequencies --   1781.2917              3024.9413              3059.9137
 Red. masses --      2.4101                 1.0714                 1.0370
 Frc consts  --      4.5056                 5.7762                 5.7205
 IR Inten    --    403.5544                74.5748                45.1035

                    100                    101                    102
                      A                      A                      A
 Frequencies --   3064.0524              3069.9424              3075.0153
 Red. masses --      1.0497                 1.0863                 1.0606
 Frc consts  --      5.8062                 6.0321                 5.9088
 IR Inten    --    460.8055               837.6503                20.8866

                    103                    104                    105
                      A                      A                      A
 Frequencies --   3076.2217              3094.3284              3105.4969
 Red. masses --      1.0618                 1.0928                 1.1010
 Frc consts  --      5.9202                 6.1649                 6.2559
 IR Inten    --     37.4204                36.3681                10.2165

                    106                    107                    108
                      A                      A                      A
 Frequencies --   3110.8216              3132.1670              3132.2787
 Red. masses --      1.1013                 1.1020                 1.1003
 Frc consts  --      6.2790                 6.3697                 6.3603
 IR Inten    --      4.5747                81.4314                47.1811

                    109                    110                    111
                      A                      A                      A
 Frequencies --   3132.9892              3149.4154              3222.4658
 Red. masses --      1.1014                 1.1027                 1.0923
 Frc consts  --      6.3695                 6.4439                 6.6829
 IR Inten    --     41.4302                42.5232                11.8203

                    112                    113                    114
                      A                      A                      A
 Frequencies --   3227.8560              3255.3998              3293.3868
 Red. masses --      1.0920                 1.0890                 1.0915
 Frc consts  --      6.7036                 6.7998                 6.9754
 IR Inten    --      7.2423              1414.7305                 8.9627

 - Thermochemistry -
 -------------------
 Temperature   298.150 Kelvin.  Pressure   1.00000 Atm.
 Atom     1 has atomic number  6 and mass  12.00000

 Molecular mass:   353.08798 amu.
 Principal axes and moments of inertia in atomic units:
                           1         2         3
     Eigenvalues --  5440.59017********************
           X            0.99998  -0.00639  -0.00060
           Y            0.00639   0.99998  -0.00180
           Z            0.00061   0.00179   1.00000
 This molecule is an asymmetric top.
 Rotational symmetry number  1.
 Warning -- assumption of classical behavior for rotation
           may cause significant error
 Rotational temperatures (Kelvin)      0.01592     0.00524     0.00402
 Rotational constants (GHZ):           0.33172     0.10916     0.08366
 Zero-point vibrational energy     806606.0 (Joules/Mol)
                                  192.78346 (Kcal/Mol)
 Warning -- explicit consideration of  36 degrees of freedom as
           vibrations may cause significant error
 Vibrational temperatures:     31.94    38.18    54.91    56.93    70.89
          (Kelvin)             72.97    82.46    90.97    99.70   110.67
                              125.02   156.91   174.71   196.61   214.33
                              243.89   244.68   285.75   313.58   340.23
                              353.34   378.61   429.96   442.49   451.35
                              498.39   505.06   526.64   618.04   674.74
                              675.85   752.18   767.77   782.81   843.22
                              865.94   942.12   951.45   963.24  1011.27
                             1062.09  1088.61  1093.08  1120.65  1159.99
                             1179.77  1190.16  1235.51  1282.53  1298.81
                             1314.67  1344.49  1358.22  1392.06  1432.86
                             1474.86  1499.79  1514.38  1557.25  1596.53
                             1601.68  1654.30  1667.65  1678.53  1681.03
                             1697.66  1710.86  1745.70  1843.01  1849.12
                             1861.45  1872.56  1892.50  1915.12  1917.47
                             1931.98  1965.63  1990.75  2045.20  2046.91
                             2057.02  2103.22  2106.59  2128.11  2164.61
                             2172.37  2182.98  2186.21  2189.34  2210.28
                             2221.41  2323.38  2356.83  2401.08  2419.06
                             2452.73  2562.88  4352.21  4402.53  4408.48
                             4416.96  4424.26  4425.99  4452.04  4468.11
                             4475.77  4506.48  4506.64  4507.67  4531.30
                             4636.40  4644.16  4683.79  4738.44

 Zero-point correction=                           0.307220 (Hartree/Particle)
 Thermal correction to Energy=                    0.331662
 Thermal correction to Enthalpy=                  0.332606
 Thermal correction to Gibbs Free Energy=         0.248611
 Sum of electronic and zero-point Energies=          -1638.406806
 Sum of electronic and thermal Energies=             -1638.382365
 Sum of electronic and thermal Enthalpies=           -1638.381420
 Sum of electronic and thermal Free Energies=        -1638.465415

                     E (Thermal)             CV                S
                      KCal/Mol        Cal/Mol-Kelvin    Cal/Mol-Kelvin
 Total                  208.121             85.508            176.782
 Electronic               0.000              0.000              0.000
 Translational            0.889              2.981             43.478
 Rotational               0.889              2.981             35.916
 Vibrational            206.343             79.546             97.388
 Vibration     1          0.593              1.985              6.427
 Vibration     2          0.593              1.984              6.073
 Vibration     3          0.594              1.982              5.352
 Vibration     4          0.594              1.981              5.280
 Vibration     5          0.595              1.978              4.846
 Vibration     6          0.595              1.977              4.789
 Vibration     7          0.596              1.975              4.548
 Vibration     8          0.597              1.972              4.354
 Vibration     9          0.598              1.969              4.173
 Vibration    10          0.599              1.965              3.968
 Vibration    11          0.601              1.958              3.729
 Vibration    12          0.606              1.942              3.286
 Vibration    13          0.609              1.931              3.077
 Vibration    14          0.614              1.917              2.850
 Vibration    15          0.618              1.904              2.685
 Vibration    16          0.625              1.880              2.441
 Vibration    17          0.625              1.879              2.435
 Vibration    18          0.637              1.842              2.146
 Vibration    19          0.646              1.814              1.976
 Vibration    20          0.655              1.785              1.829
 Vibration    21          0.660              1.770              1.762
 Vibration    22          0.670              1.740              1.641
 Vibration    23          0.692              1.676              1.423
 Vibration    24          0.697              1.659              1.376
 Vibration    25          0.702              1.648              1.343
 Vibration    26          0.724              1.583              1.183
 Vibration    27          0.728              1.573              1.162
 Vibration    28          0.739              1.542              1.096
 Vibration    29          0.791              1.406              0.860
 Vibration    30          0.826              1.319              0.740
 Vibration    31          0.827              1.317              0.738
 Vibration    32          0.878              1.200              0.604
 Vibration    33          0.889              1.176              0.579
 Vibration    34          0.899              1.153              0.557
 Vibration    35          0.943              1.062              0.474
 Vibration    36          0.960              1.028              0.446

 Optimization completed.
    -- Stationary point found.
 Normal termination of Gaussian 09 at Thu Nov 14 23:36:39 2019.
