 Gaussian 09, Revision E.01,

 ----------------------------------------------------------------------
 # M062X/6-311+G* SCF=Tight INT(grid=ultrafine) OPT IOP(2/17=4) Empiric
 alDispersion=GD3 SCRF=(SMD,Solvent=h2o) maxdisk=2684354560
 ----------------------------------------------------------------------

 ------------------------------------------
 29_c2_carboxy.M062X_6-311pGd_opt_water_GD3
 ------------------------------------------
 Symbolic Z-matrix:
 Charge = -1 Multiplicity = 1

 SCF Done:  E(RM062X) =  -1638.74575352     A.U. after   15 cycles
 SCF Done:  E(RM062X) =  -1638.74575302     A.U. after   11 cycles
 SCF Done:  E(RM062X) =  -1638.74575364     A.U. after   11 cycles
 SCF Done:  E(RM062X) =  -1638.74575369     A.U. after    9 cycles
 SCF Done:  E(RM062X) =  -1638.74575387     A.U. after   10 cycles
 SCF Done:  E(RM062X) =  -1638.74575398     A.U. after   10 cycles
 SCF Done:  E(RM062X) =  -1638.74575416     A.U. after   10 cycles
 SCF Done:  E(RM062X) =  -1638.74575440     A.U. after   11 cycles
 SCF Done:  E(RM062X) =  -1638.74575498     A.U. after   12 cycles
 SCF Done:  E(RM062X) =  -1638.74573327     A.U. after   14 cycles
 SCF Done:  E(RM062X) =  -1638.74577893     A.U. after   12 cycles
 SCF Done:  E(RM062X) =  -1638.74577923     A.U. after   11 cycles
 SCF Done:  E(RM062X) =  -1638.74578006     A.U. after   10 cycles
 SCF Done:  E(RM062X) =  -1638.74577907     A.U. after   12 cycles
 SCF Done:  E(RM062X) =  -1638.74578031     A.U. after   12 cycles
 SCF Done:  E(RM062X) =  -1638.74578033     A.U. after   10 cycles
 SCF Done:  E(RM062X) =  -1638.74578041     A.U. after    9 cycles
 SCF Done:  E(RM062X) =  -1638.74578045     A.U. after    8 cycles
 SCF Done:  E(RM062X) =  -1638.74578044     A.U. after    9 cycles
 Optimization completed.
    -- Stationary point found.
 Normal termination of Gaussian 09 at Fri Nov 15 04:02:07 2019.
 Gaussian 09:  ES64L-G09RevE.01 30-Nov-2015

 ----------------------------------------------------------------------
 # M062X/6-311+G* SCF=Tight INT(grid=ultrafine) SCRF=(SMD,Solvent=h2o)
 EmpiricalDispersion=GD3 Freq=Noraman maxdisk=2684354560 geom=check gue
 ss=read IOP(2/17=4)
 ----------------------------------------------------------------------

 ------------------------------------------
 29_c2_carboxy.M062X_6-311pGd_opt_water_GD3
 ------------------------------------------
 Structure from the checkpoint file:  "29_c2_carboxy.M062X_6-311pGd_opt_water_GD3.chk"
 Charge = -1 Multiplicity = 1

                         Standard orientation:
 ---------------------------------------------------------------------
 Center     Atomic      Atomic             Coordinates (Angstroms)
 Number     Number       Type             X           Y           Z
 ---------------------------------------------------------------------
      1          6           0        0.748083   -0.927236   -0.202184
      2          7           0       -0.634880   -0.754308   -0.188594
      3          6           0       -1.568974   -1.740412    0.066769
      4          8           0       -1.267901   -2.919575    0.295231
      5          7           0       -2.841413   -1.301926    0.058252
      6          6           0       -3.950894   -2.212502    0.298175
      7          6           0       -5.270635   -1.462300    0.213813
      8          6           0       -6.450411   -2.391513    0.470722
      9          6           0        1.538808    0.190690    0.091104
     10          6           0        2.923113    0.113681    0.056385
     11          6           0        3.541687   -1.095604   -0.263408
     12          6           0        2.767752   -2.205481   -0.562278
     13          6           0        1.381274   -2.126558   -0.542702
     14          1           0       -0.965547    0.218333   -0.120125
     15          1           0       -3.048121   -0.339898   -0.220721
     16          1           0       -3.842957   -2.671164    1.285720
     17          1           0       -3.933953   -3.023299   -0.437425
     18          1           0       -5.362479   -1.003918   -0.775970
     19          1           0       -5.268802   -0.645551    0.942577
     20          1           0       -6.477651   -3.203202   -0.261041
     21          1           0       -7.397776   -1.852889    0.407123
     22          1           0       -6.387153   -2.840491    1.465427
     23          1           0        1.056130    1.126645    0.347334
     24          6           0        3.733548    1.338888    0.372695
     25         17           0        5.280332   -1.248761   -0.306445
     26          1           0        3.249270   -3.139624   -0.825377
     27          1           0        0.799113   -2.997416   -0.804482
     28          9           0        4.529829    1.160684    1.441470
     29          9           0        4.533989    1.696162   -0.646692
     30          9           0        2.964401    2.400612    0.642861
     31          8           0       -1.513810    1.944865    0.133939
     32          8           0       -3.499343    1.425303   -0.731330
     33          6           0       -2.687426    2.245008   -0.230726
     34          6           0       -3.113061    3.696604   -0.040889
     35          6           0       -4.550862    4.003194   -0.428757
     36          1           0       -2.414900    4.309550   -0.619534
     37          1           0       -2.929386    3.949000    1.007639
     38          1           0       -4.732383    3.788744   -1.483714
     39          1           0       -4.777689    5.057684   -0.257349
     40          1           0       -5.254846    3.409454    0.158078
 ---------------------------------------------------------------------

 SCF Done:  E(RM062X) =  -1638.74578044     A.U. after    1 cycles

 The electronic state is 1-A.
 Alpha  occ. eigenvalues -- -102.68641 -25.28699 -25.28335 -25.28332 -19.59259
 Alpha  occ. eigenvalues --  -19.57897 -19.57618 -14.76983 -14.75481 -10.81302
 Alpha  occ. eigenvalues --  -10.67445 -10.63856 -10.61937 -10.60511 -10.58789
 Alpha  occ. eigenvalues --  -10.56487 -10.56311 -10.56094 -10.55604 -10.52689
 Alpha  occ. eigenvalues --  -10.52457 -10.51549 -10.51349  -9.82918  -7.55431
 Alpha  occ. eigenvalues --   -7.54754  -7.54745  -1.47934  -1.38537  -1.38197
 Alpha  occ. eigenvalues --   -1.17726  -1.16672  -1.06812  -1.05621  -1.02634
 Alpha  occ. eigenvalues --   -1.00828  -0.94537  -0.90048  -0.87772  -0.85735
 Alpha  occ. eigenvalues --   -0.84267  -0.81405  -0.77258  -0.74237  -0.72238
 Alpha  occ. eigenvalues --   -0.72046  -0.70269  -0.69401  -0.69250  -0.67973
 Alpha  occ. eigenvalues --   -0.64435  -0.63000  -0.59643  -0.58910  -0.58505
 Alpha  occ. eigenvalues --   -0.58320  -0.56867  -0.55764  -0.55320  -0.54239
 Alpha  occ. eigenvalues --   -0.54134  -0.53448  -0.52989  -0.52781  -0.52169
 Alpha  occ. eigenvalues --   -0.51779  -0.51262  -0.50805  -0.50344  -0.49017
 Alpha  occ. eigenvalues --   -0.48233  -0.46640  -0.46116  -0.45553  -0.45454
 Alpha  occ. eigenvalues --   -0.44326  -0.43785  -0.42298  -0.41735  -0.41480
 Alpha  occ. eigenvalues --   -0.39728  -0.39404  -0.38949  -0.38827  -0.36831
 Alpha  occ. eigenvalues --   -0.35949  -0.33965  -0.33406  -0.32896  -0.32487
 Alpha  occ. eigenvalues --   -0.32032  -0.27216
 Alpha virt. eigenvalues --   -0.00851   0.00338   0.01323   0.02050   0.02694
 Alpha virt. eigenvalues --    0.02895   0.03360   0.03716   0.04173   0.04560
 Alpha virt. eigenvalues --    0.04891   0.05267   0.05371   0.05964   0.06412

 Mulliken charges:
               1
     1  C   -0.376827
     2  N   -0.365969
     3  C    0.157864
     4  O   -0.544240
     5  N   -0.455781
     6  C   -0.545466
     7  C   -0.087657
     8  C   -1.155525
     9  C   -0.363726
    10  C   -1.234831
    11  C    0.741358
    12  C   -0.701230
    13  C    0.161355
    14  H    0.467535
    15  H    0.468643
    16  H    0.271624
    17  H    0.271786
    18  H    0.273786
    19  H    0.274466
    20  H    0.268638
    21  H    0.279848
    22  H    0.269553
    23  H    0.351761
    24  C    0.694198
    25  Cl   0.417101
    26  H    0.317735
    27  H    0.312680
    28  F   -0.050903
    29  F   -0.056381
    30  F   -0.143593
    31  O   -0.617096
    32  O   -0.583561
    33  C    0.198780
    34  C   -0.280496
    35  C   -1.021361
    36  H    0.286775
    37  H    0.285213
    38  H    0.269888
    39  H    0.273972
    40  H    0.270084
 Sum of Mulliken charges =  -1.00000

 Dipole moment (field-independent basis, Debye):
    X=              2.2799    Y=             -1.3921    Z=             -0.0113  Tot=              2.6713
 Quadrupole moment (field-independent basis, Debye-Ang):
   XX=           -183.6676   YY=           -162.6525   ZZ=           -149.1100
   XY=             -1.4560   XZ=             -8.6535   YZ=              5.6477

  Exact polarizability: 372.105   2.155 289.830   1.937  13.021 203.800
 Approx polarizability: 296.902  -0.521 248.754   2.739  11.272 183.309

                      1                      2                      3
                      A                      A                      A
 Frequencies --     10.5743                15.0329                21.6251
 Red. masses --      5.1049                 5.2516                 4.2177
 Frc consts  --      0.0003                 0.0007                 0.0012
 IR Inten    --      1.5993                 1.9831                 1.3417

                      4                      5                      6
                      A                      A                      A
 Frequencies --     31.6931                37.5199                44.3811
 Red. masses --      3.2710                 2.0566                 5.5158
 Frc consts  --      0.0019                 0.0017                 0.0064
 IR Inten    --      1.3728                 2.0654                 3.6314

                      7                      8                      9
                      A                      A                      A
 Frequencies --     48.5732                56.2905                64.3386
 Red. masses --      3.8684                 4.5510                 9.2251
 Frc consts  --      0.0054                 0.0085                 0.0225
 IR Inten    --      8.4780                 4.6720                 3.2931

                     10                     11                     12
                      A                      A                      A
 Frequencies --     66.8852                76.4369               101.8425
 Red. masses --      6.0581                 6.1133                 5.3985
 Frc consts  --      0.0160                 0.0210                 0.0330
 IR Inten    --      4.5730                 5.7654                17.3129

                     13                     14                     15
                      A                      A                      A
 Frequencies --    114.9073               130.9320               143.7391
 Red. masses --      5.7706                 7.5696                 5.5842
 Frc consts  --      0.0449                 0.0765                 0.0680
 IR Inten    --      8.1362                14.9855                 6.5376

                     16                     17                     18
                      A                      A                      A
 Frequencies --    153.7270               163.8245               175.7561
 Red. masses --      4.0762                 7.1443                 6.4455
 Frc consts  --      0.0568                 0.1130                 0.1173
 IR Inten    --     15.3602                10.5485                 8.7323

                     19                     20                     21
                      A                      A                      A
 Frequencies --    218.6744               235.0047               249.4011
 Red. masses --      7.1199                 1.1455                 1.0888
 Frc consts  --      0.2006                 0.0373                 0.0399
 IR Inten    --      5.0669                 0.1265                 1.5027

                     22                     23                     24
                      A                      A                      A
 Frequencies --    262.7580               299.9102               307.2055
 Red. masses --      6.3183                 3.8445                14.3237
 Frc consts  --      0.2570                 0.2037                 0.7965
 IR Inten    --      6.8951                 9.6410                 3.9285

                     25                     26                     27
                      A                      A                      A
 Frequencies --    313.2631               343.4112               357.3521
 Red. masses --      7.1778                 4.7942                 5.9806
 Frc consts  --      0.4150                 0.3331                 0.4500
 IR Inten    --      1.9242                 8.7718                11.1094

                     28                     29                     30
                      A                      A                      A
 Frequencies --    370.2337               427.3771               465.8808
 Red. masses --      7.7084                 6.4893                 4.1548
 Frc consts  --      0.6225                 0.6983                 0.5313
 IR Inten    --      0.6524                29.7216                 4.5079

                     31                     32                     33
                      A                      A                      A
 Frequencies --    470.9636               519.0850               528.6491
 Red. masses --      5.8576                 5.6784                 5.9355
 Frc consts  --      0.7655                 0.9015                 0.9773
 IR Inten    --      4.1980                55.1959                22.6026

                     34                     35                     36
                      A                      A                      A
 Frequencies --    541.7857               580.9647               600.2567
 Red. masses --      7.3931                 1.8761                 7.6663
 Frc consts  --      1.2786                 0.3731                 1.6275
 IR Inten    --     16.7152                 4.9639                 7.7100

                     37                     38                     39
                      A                      A                      A
 Frequencies --    637.5961               649.1916               655.4782
 Red. masses --      1.3528                 4.5668                 3.5085
 Frc consts  --      0.3240                 1.1340                 0.8882
 IR Inten    --    158.6677                32.4226                35.7181

                     40                     41                     42
                      A                      A                      A
 Frequencies --    670.9038               706.0663               735.0872
 Red. masses --      7.1633                 6.3055                 4.5461
 Frc consts  --      1.8997                 1.8521                 1.4473
 IR Inten    --     19.8722                11.2500                 1.0159

                     43                     44                     45
                      A                      A                      A
 Frequencies --    746.9403               754.5777               768.6737
 Red. masses --      2.1966                 1.1165                 4.4993
 Frc consts  --      0.7221                 0.3746                 1.5663
 IR Inten    --    102.0408                 9.7038                73.1636

                     46                     47                     48
                      A                      A                      A
 Frequencies --    793.1477               818.5378               827.0166
 Red. masses --      3.3797                 1.5518                 2.5105
 Frc consts  --      1.2527                 0.6126                 1.0117
 IR Inten    --     29.3611                19.6196               174.7952

                     49                     50                     51
                      A                      A                      A
 Frequencies --    857.4224               887.2944               904.1979
 Red. masses --      1.4744                 3.9657                 1.1586
 Frc consts  --      0.6387                 1.8395                 0.5581
 IR Inten    --     25.7920                47.0768                 1.9339

                     52                     53                     54
                      A                      A                      A
 Frequencies --    915.8393               924.3688               943.4461
 Red. masses --      2.0801                 1.7006                 2.5959
 Frc consts  --      1.0279                 0.8561                 1.3613
 IR Inten    --     51.7695                32.6028                17.6962

                     55                     56                     57
                      A                      A                      A
 Frequencies --    993.1941              1024.5460              1045.4221
 Red. masses --      1.3215                 1.6567                 5.8459
 Frc consts  --      0.7680                 1.0246                 3.7643
 IR Inten    --      1.2685                15.3312                40.9796

                     58                     59                     60
                      A                      A                      A
 Frequencies --   1052.1549              1082.7841              1109.4456
 Red. masses --      4.1278                 2.6072                 1.9177
 Frc consts  --      2.6924                 1.8010                 1.3907
 IR Inten    --     30.5853                23.9595                 9.0237

                     61                     62                     63
                      A                      A                      A
 Frequencies --   1110.5263              1145.9399              1148.5326
 Red. masses --      2.1579                 3.1489                12.5469
 Frc consts  --      1.5680                 2.4363                 9.7515
 IR Inten    --     13.2802               137.6535               461.8722

                     64                     65                     66
                      A                      A                      A
 Frequencies --   1154.8896              1161.2643              1177.6363
 Red. masses --      2.7788                 1.7786                 2.8253
 Frc consts  --      2.1837                 1.4132                 2.3085
 IR Inten    --     86.2544                42.3644                 5.3926

                     67                     68                     69
                      A                      A                      A
 Frequencies --   1179.2655              1193.9411              1279.1738
 Red. masses --      1.8085                 2.9011                 3.0278
 Frc consts  --      1.4818                 2.4366                 2.9190
 IR Inten    --      1.4411               352.3205               243.2501

                     70                     71                     72
                      A                      A                      A
 Frequencies --   1282.5607              1292.6745              1298.3467
 Red. masses --      1.1915                 1.1698                 1.9547
 Frc consts  --      1.1548                 1.1517                 1.9414
 IR Inten    --      0.5910                 0.4236               484.0458

                     73                     74                     75
                      A                      A                      A
 Frequencies --   1306.4375              1329.5391              1330.4178
 Red. masses --      1.5295                 1.8478                 1.0803
 Frc consts  --      1.5381                 1.9245                 1.1267
 IR Inten    --    135.2193               120.3704                 1.1999

                     76                     77                     78
                      A                      A                      A
 Frequencies --   1333.0555              1352.4637              1370.0966
 Red. masses --      3.0904                 1.8306                 3.6833
 Frc consts  --      3.2356                 1.9729                 4.0737
 IR Inten    --     78.8515               270.7990               475.1934

                     79                     80                     81
                      A                      A                      A
 Frequencies --   1415.5449              1415.9153              1425.0381
 Red. masses --      1.2768                 1.3134                 1.6856
 Frc consts  --      1.5074                 1.5514                 2.0168
 IR Inten    --      6.4575                32.0406                36.7537

                     82                     83                     84
                      A                      A                      A
 Frequencies --   1447.4580              1459.0845              1461.1063
 Red. masses --      1.6287                 4.1671                 2.0515
 Frc consts  --      2.0104                 5.2270                 2.5804
 IR Inten    --    240.4349               174.8860               212.9045

                     85                     86                     87
                      A                      A                      A
 Frequencies --   1481.7216              1499.4887              1499.6981
 Red. masses --      1.0611                 1.0383                 1.0378
 Frc consts  --      1.3726                 1.3755                 1.3752
 IR Inten    --      6.5227                13.5966                12.8443

                     88                     89                     90
                      A                      A                      A
 Frequencies --   1506.3634              1506.5714              1526.3046
 Red. masses --      1.0809                 1.0903                 1.1041
 Frc consts  --      1.4450                 1.4580                 1.5154
 IR Inten    --     26.8855                38.3886                64.9697

                     91                     92                     93
                      A                      A                      A
 Frequencies --   1537.4294              1540.8331              1598.6257
 Red. masses --      3.1204                 6.5788                 3.2380
 Frc consts  --      4.3456                 9.2026                 4.8755
 IR Inten    --    231.9713              1197.6592               470.3448

                     94                     95                     96
                      A                      A                      A
 Frequencies --   1608.0775              1662.7476              1678.5184
 Red. masses --      1.9294                 7.5418                 4.8491
 Frc consts  --      2.9396                12.2852                 8.0493
 IR Inten    --   1415.0750               174.0182                30.3744

                     97                     98                     99
                      A                      A                      A
 Frequencies --   1718.7621              3062.6820              3067.0843
 Red. masses --      1.9347                 1.0588                 1.0392
 Frc consts  --      3.3673                 5.8513                 5.7597
 IR Inten    --    527.9875                15.2537                23.7379

                    100                    101                    102
                      A                      A                      A
 Frequencies --   3070.5997              3075.3965              3079.6421
 Red. masses --      1.0580                 1.0367                 1.0624
 Frc consts  --      5.8774                 5.7773                 5.9365
 IR Inten    --    118.9382                44.7014                18.1917

                    103                    104                    105
                      A                      A                      A
 Frequencies --   3092.4054              3112.0782              3112.8361
 Red. masses --      1.1038                 1.1062                 1.1012
 Frc consts  --      6.2190                 6.3124                 6.2866
 IR Inten    --      6.5242                43.9738                 7.0042

                    106                    107                    108
                      A                      A                      A
 Frequencies --   3135.9383              3143.1647              3143.6840
 Red. masses --      1.1041                 1.1024                 1.1026
 Frc consts  --      6.3973                 6.4171                 6.4202
 IR Inten    --     96.8889                48.3724                48.2972

                    109                    110                    111
                      A                      A                      A
 Frequencies --   3148.9695              3231.9777              3236.0429
 Red. masses --      1.1036                 1.0925                 1.0929
 Frc consts  --      6.4479                 6.7236                 6.7429
 IR Inten    --     55.9484                 2.0251                 2.0557

                    112                    113                    114
                      A                      A                      A
 Frequencies --   3260.6003              3278.5908              3389.1989
 Red. masses --      1.0866                 1.0932                 1.0849
 Frc consts  --      6.8061                 6.9235                 7.3426
 IR Inten    --   1176.4149                 2.6563              1107.7540

 - Thermochemistry -
 -------------------
 Temperature   298.150 Kelvin.  Pressure   1.00000 Atm.
 Atom     1 has atomic number  6 and mass  12.00000

 Molecular mass:   353.08798 amu.
 Principal axes and moments of inertia in atomic units:
                           1         2         3
     Eigenvalues --  5411.12318********************
           X            0.99997  -0.00669  -0.00312
           Y            0.00667   0.99996  -0.00608
           Z            0.00316   0.00606   0.99998
 This molecule is an asymmetric top.
 Rotational symmetry number  1.
 Warning -- assumption of classical behavior for rotation
           may cause significant error
 Rotational temperatures (Kelvin)      0.01601     0.00506     0.00397
 Rotational constants (GHZ):           0.33352     0.10552     0.08273
 Zero-point vibrational energy     802278.7 (Joules/Mol)
                                  191.74922 (Kcal/Mol)
 Warning -- explicit consideration of  36 degrees of freedom as
           vibrations may cause significant error
 Vibrational temperatures:     15.21    21.63    31.11    45.60    53.98
          (Kelvin)             63.85    69.89    80.99    92.57    96.23
                              109.98   146.53   165.33   188.38   206.81
                              221.18   235.71   252.87   314.62   338.12
                              358.83   378.05   431.50   442.00   450.72
                              494.09   514.15   532.68   614.90   670.30
                              677.61   746.85   760.61   779.51   835.88
                              863.63   917.36   934.04   943.09   965.28
                             1015.87  1057.63  1074.68  1085.67  1105.95
                             1141.16  1177.69  1189.89  1233.64  1276.62
                             1300.94  1317.69  1329.96  1357.41  1428.98
                             1474.09  1504.13  1513.81  1557.88  1596.24
                             1597.80  1648.75  1652.48  1661.63  1670.80
                             1694.35  1696.70  1717.81  1840.44  1845.32
                             1859.87  1868.03  1879.67  1912.91  1914.17
                             1917.97  1945.89  1971.26  2036.65  2037.18
                             2050.31  2082.57  2099.29  2102.20  2131.86
                             2157.43  2157.73  2167.32  2167.62  2196.01
                             2212.02  2216.91  2300.06  2313.66  2392.32
                             2415.01  2472.91  4406.51  4412.84  4417.90
                             4424.80  4430.91  4449.28  4477.58  4478.67
                             4511.91  4522.31  4523.05  4530.66  4650.09
                             4655.94  4691.27  4717.16  4876.30

 Zero-point correction=                           0.305572 (Hartree/Particle)
 Thermal correction to Energy=                    0.330493
 Thermal correction to Enthalpy=                  0.331437
 Thermal correction to Gibbs Free Energy=         0.243887
 Sum of electronic and zero-point Energies=          -1638.440209
 Sum of electronic and thermal Energies=             -1638.415288
 Sum of electronic and thermal Enthalpies=           -1638.414343
 Sum of electronic and thermal Free Energies=        -1638.501893

                     E (Thermal)             CV                S
                      KCal/Mol        Cal/Mol-Kelvin    Cal/Mol-Kelvin
 Total                  207.387             86.454            184.264
 Electronic               0.000              0.000              0.000
 Translational            0.889              2.981             43.478
 Rotational               0.889              2.981             35.955
 Vibrational            205.610             80.493            104.830
 Vibration     1          0.593              1.987              7.900
 Vibration     2          0.593              1.986              7.201
 Vibration     3          0.593              1.985              6.479
 Vibration     4          0.594              1.983              5.721
 Vibration     5          0.594              1.982              5.386
 Vibration     6          0.595              1.980              5.053
 Vibration     7          0.595              1.978              4.875
 Vibration     8          0.596              1.975              4.583
 Vibration     9          0.597              1.971              4.319
 Vibration    10          0.598              1.970              4.243
 Vibration    11          0.599              1.965              3.980
 Vibration    12          0.604              1.948              3.419
 Vibration    13          0.608              1.937              3.184
 Vibration    14          0.612              1.922              2.932
 Vibration    15          0.616              1.909              2.754
 Vibration    16          0.619              1.899              2.626
 Vibration    17          0.623              1.887              2.505
 Vibration    18          0.628              1.872              2.373
 Vibration    19          0.646              1.813              1.970
 Vibration    20          0.655              1.787              1.840
 Vibration    21          0.662              1.764              1.735
 Vibration    22          0.670              1.741              1.643
 Vibration    23          0.692              1.674              1.417
 Vibration    24          0.697              1.660              1.377
 Vibration    25          0.701              1.648              1.345
 Vibration    26          0.722              1.589              1.196
 Vibration    27          0.733              1.560              1.134
 Vibration    28          0.742              1.533              1.079
 Vibration    29          0.789              1.411              0.867
 Vibration    30          0.823              1.326              0.749
 Vibration    31          0.828              1.314              0.735
 Vibration    32          0.874              1.208              0.612
 Vibration    33          0.884              1.187              0.590
 Vibration    34          0.897              1.158              0.561
 Vibration    35          0.938              1.072              0.484
 Vibration    36          0.958              1.031              0.449

 Normal termination of Gaussian 09 at Fri Nov 15 05:28:18 2019.
