 Gaussian 16, Revision C.01,
 Gaussian 16:  ES64L-G16RevC.01  3-Jul-2019

 ----------------------------------------------------------------------
 # DSDPBEP86/AUG-cc-PVTZ SCF=Tight INT(grid=ultrafine) IOP(8/23=30) Pop
 =NBO MaxDisk=1400000MB
 ----------------------------------------------------------------------

 -----------------------------------
 29_c2_carboxy.DSDPBEP86_AUG-cc-PVTZ
 -----------------------------------
 Symbolic Z-matrix:
 Charge = -1 Multiplicity = 1

                         Standard orientation:
 ---------------------------------------------------------------------
 Center     Atomic      Atomic             Coordinates (Angstroms)
 Number     Number       Type             X           Y           Z
 ---------------------------------------------------------------------
      1          6           0        0.678297   -1.005925    0.004133
      2          7           0       -0.685048   -0.809272    0.030822
      3          6           0       -1.672341   -1.783153   -0.021106
      4          8           0       -1.446337   -2.987803   -0.092177
      5          7           0       -2.920198   -1.259190    0.024550
      6          6           0       -4.077299   -2.114073   -0.108585
      7          6           0       -5.336168   -1.340030    0.262480
      8          6           0       -6.592295   -2.185958    0.080906
      9          6           0        1.482416    0.150855    0.041075
     10          6           0        2.865008    0.062913    0.021073
     11          6           0        3.482227   -1.189576   -0.037182
     12          6           0        2.700685   -2.331424   -0.074309
     13          6           0        1.313443   -2.255630   -0.053913
     14          1           0       -0.988451    0.183909    0.076710
     15          1           0       -3.065843   -0.239497   -0.022892
     16          1           0       -3.955097   -2.987631    0.539195
     17          1           0       -4.162493   -2.498834   -1.135018
     18          1           0       -5.392344   -0.431816   -0.344683
     19          1           0       -5.248709   -1.002639    1.299629
     20          1           0       -6.706624   -2.502763   -0.959772
     21          1           0       -7.491760   -1.631808    0.358896
     22          1           0       -6.553823   -3.089422    0.696857
     23          1           0        0.993090    1.118959    0.084684
     24          6           0        3.680223    1.325003    0.061926
     25         17           0        5.224914   -1.361333   -0.064775
     26          1           0        3.185685   -3.299637   -0.119470
     27          1           0        0.714344   -3.152976   -0.083294
     28          9           0        4.498788    1.369362    1.130065
     29          9           0        4.464130    1.461683   -1.024244
     30          9           0        2.918225    2.422740    0.121300
     31          8           0       -1.267701    1.882119    0.117319
     32          8           0       -3.461159    1.514176   -0.123704
     33          6           0       -2.461358    2.257467   -0.012186
     34          6           0       -2.684518    3.776931   -0.031622
     35          6           0       -4.140404    4.194377   -0.184430
     36          1           0       -2.069132    4.180508   -0.841733
     37          1           0       -2.252183    4.175853    0.891261
     38          1           0       -4.560124    3.799967   -1.111345
     39          1           0       -4.244634    5.283823   -0.191397
     40          1           0       -4.744899    3.793219    0.630813
 ---------------------------------------------------------------------

 SCF Done:  E(RDSDPBEP86) =  -1634.82252547     A.U. after   14 cycles
 E2(DSDPBEP86) =    -0.2210009753D+01 E(DSDPBEP86) =    -0.16370325352246D+04

 The electronic state is 1-A.
 Alpha  occ. eigenvalues -- -103.48223 -25.61623 -25.61364 -25.61362 -19.84308
 Alpha  occ. eigenvalues --  -19.81951 -19.81660 -14.97915 -14.96054 -10.99244
 Alpha  occ. eigenvalues --  -10.83261 -10.79339 -10.78714 -10.77657 -10.76099
 Alpha  occ. eigenvalues --  -10.74207 -10.73624 -10.73210 -10.72382 -10.71861
 Alpha  occ. eigenvalues --  -10.71070 -10.69502 -10.69448 -10.05717  -7.63393
 Alpha  occ. eigenvalues --   -7.62930  -7.62925  -1.48079  -1.38681  -1.38381
 Alpha  occ. eigenvalues --   -1.14565  -1.12451  -1.02733  -1.02167  -0.99428
 Alpha  occ. eigenvalues --   -0.97899  -0.91361  -0.86678  -0.85354  -0.82097
 Alpha  occ. eigenvalues --   -0.80378  -0.76868  -0.73580  -0.68981  -0.67210
 Alpha  occ. eigenvalues --   -0.66708  -0.64243  -0.64235  -0.63458  -0.62136
 Alpha  occ. eigenvalues --   -0.57928  -0.55578  -0.52845  -0.52684  -0.52468
 Alpha  occ. eigenvalues --   -0.50995  -0.49713  -0.48951  -0.48376  -0.48194
 Alpha  occ. eigenvalues --   -0.47014  -0.46497  -0.46352  -0.44774  -0.44551
 Alpha  occ. eigenvalues --   -0.44070  -0.43922  -0.43212  -0.42051  -0.41250
 Alpha  occ. eigenvalues --   -0.40778  -0.39748  -0.38559  -0.38294  -0.36878
 Alpha  occ. eigenvalues --   -0.36817  -0.36205  -0.35554  -0.34289  -0.33904
 Alpha  occ. eigenvalues --   -0.33120  -0.32317  -0.31536  -0.31485  -0.28001
 Alpha  occ. eigenvalues --   -0.25954  -0.23552  -0.22560  -0.22260  -0.21950
 Alpha  occ. eigenvalues --   -0.21740  -0.16362
 Alpha virt. eigenvalues --    0.08184   0.09042   0.09323   0.10051   0.10213
 Alpha virt. eigenvalues --    0.11069   0.11171   0.11337   0.11899   0.12519
 Alpha virt. eigenvalues --    0.12671   0.12978   0.13378   0.13426   0.13952

 Mulliken charges:
               1
     1  C    0.640735
     2  N   -0.585562
     3  C   -0.016968
     4  O   -0.996828
     5  N   -0.207968
     6  C   -0.455301
     7  C   -0.436725
     8  C   -1.009727
     9  C   -1.276730
    10  C    0.418822
    11  C    0.739954
    12  C   -0.874766
    13  C   -0.395458
    14  H    0.822624
    15  H    0.876324
    16  H    0.358742
    17  H    0.236650
    18  H    0.297076
    19  H    0.223650
    20  H    0.267051
    21  H    0.267873
    22  H    0.270261
    23  H    0.494394
    24  C    1.162136
    25  Cl  -0.528491
    26  H    0.408152
    27  H    0.616347
    28  F   -0.426710
    29  F   -0.425864
    30  F   -0.349279
    31  O   -0.889367
    32  O   -0.843265
    33  C    0.656736
    34  C   -0.277842
    35  C   -0.926765
    36  H    0.197144
    37  H    0.188872
    38  H    0.252279
    39  H    0.266415
    40  H    0.261381
 Sum of Mulliken charges =  -1.00000

 Dipole moment (field-independent basis, Debye):
    X=              1.6851    Y=             -0.8670    Z=              0.0556  Tot=              1.8959
 Quadrupole moment (field-independent basis, Debye-Ang):
   XX=           -203.8995   YY=           -172.5905   ZZ=           -147.2674
   XY=              1.1056   XZ=             -0.9724   YZ=             -0.5470

 Summary of Natural Population Analysis:

                                       Natural Population
                Natural  -----------------------------------------------
    Atom  No    Charge         Core      Valence    Rydberg      Total
 -----------------------------------------------------------------------
      C    1    0.20671      1.99915     3.76512    0.02902     5.79329
      N    2   -0.69393      1.99934     5.66989    0.02470     7.69393
      C    3    0.89521      1.99945     3.06809    0.03724     5.10479
      O    4   -0.76523      1.99977     6.73515    0.03031     8.76523
      N    5   -0.70629      1.99940     5.68777    0.01912     7.70629
      C    6   -0.13593      1.99944     4.11224    0.02425     6.13593
      C    7   -0.36970      1.99950     4.34966    0.02055     6.36970
      C    8   -0.54389      1.99954     4.52954    0.01481     6.54389
      C    9   -0.20178      1.99911     4.18150    0.02117     6.20178
      C   10   -0.17996      1.99883     4.15004    0.03109     6.17996
      C   11   -0.05038      1.99855     4.01972    0.03211     6.05038
      C   12   -0.21498      1.99915     4.18686    0.02896     6.21498
      C   13   -0.19114      1.99917     4.17043    0.02154     6.19114
      H   14    0.46270      0.00000     0.53115    0.00615     0.53730
      H   15    0.45330      0.00000     0.54030    0.00640     0.54670
      H   16    0.17709      0.00000     0.81965    0.00326     0.82291
      H   17    0.15367      0.00000     0.84325    0.00309     0.84633
      H   18    0.19974      0.00000     0.79684    0.00341     0.80026
      H   19    0.18006      0.00000     0.81624    0.00370     0.81994
      H   20    0.17763      0.00000     0.81988    0.00250     0.82237
      H   21    0.18184      0.00000     0.81592    0.00224     0.81816
      H   22    0.17584      0.00000     0.82171    0.00246     0.82416
      H   23    0.25949      0.00000     0.73674    0.00377     0.74051
      C   24    1.10519      1.99922     2.84534    0.05026     4.89481
     Cl   25   -0.03687      9.99967     7.01907    0.01812    17.03687
      H   26    0.20477      0.00000     0.79180    0.00342     0.79523
      H   27    0.24727      0.00000     0.74860    0.00412     0.75273
      F   28   -0.36934      1.99992     7.36228    0.00713     9.36934
      F   29   -0.36932      1.99992     7.36227    0.00713     9.36932
      F   30   -0.35829      1.99992     7.35137    0.00701     9.35829
      O   31   -0.85714      1.99975     6.83445    0.02295     8.85714
      O   32   -0.83407      1.99976     6.80940    0.02492     8.83407
      C   33    0.89233      1.99963     3.06328    0.04476     5.10767
      C   34   -0.46765      1.99941     4.44608    0.02216     6.46765
      C   35   -0.54624      1.99955     4.53059    0.01610     6.54624
      H   36    0.18889      0.00000     0.80796    0.00315     0.81111
      H   37    0.18871      0.00000     0.80814    0.00315     0.81129
      H   38    0.18923      0.00000     0.80794    0.00283     0.81077
      H   39    0.16334      0.00000     0.83368    0.00298     0.83666
      H   40    0.18917      0.00000     0.80800    0.00283     0.81083
 =======================================================================
   * Total *   -0.99997     53.98715   129.39794    0.61488   183.99997

 Normal termination of Gaussian 16 at Tue Nov  3 15:35:50 2020.
