 Gaussian 09, Revision E.01,

 ----------------------------------------------------------------------
 # M062X/6-311+G* SCF=Tight INT(grid=ultrafine) OPT IOP(2/17=4) Empiric
 alDispersion=GD3 maxdisk=2684354560
 ----------------------------------------------------------------------

 ---------------------------------
 29_carboxy.M062X_6-311pGd_opt_GD3
 ---------------------------------
 Symbolic Z-matrix:
 Charge = -1 Multiplicity = 1

 SCF Done:  E(RM062X) =  -1638.67406266     A.U. after   16 cycles
 SCF Done:  E(RM062X) =  -1638.67406254     A.U. after    9 cycles
 SCF Done:  E(RM062X) =  -1638.67406267     A.U. after    9 cycles
 Optimization completed.
    -- Stationary point found.
 Normal termination of Gaussian 09 at Thu Nov 14 21:58:36 2019.
 Gaussian 09:  ES64L-G09RevE.01 30-Nov-2015

 ----------------------------------------------------------------------
 # M062X/6-311+G* SCF=Tight INT(grid=ultrafine) EmpiricalDispersion=GD3
  Freq=Noraman maxdisk=2684354560 geom=check guess=read IOP(2/17=4)
 ----------------------------------------------------------------------

 ---------------------------------
 29_carboxy.M062X_6-311pGd_opt_GD3
 ---------------------------------
 Structure from the checkpoint file:  "29_carboxy.M062X_6-311pGd_opt_GD3.chk"
 Charge = -1 Multiplicity = 1

                         Standard orientation:
 ---------------------------------------------------------------------
 Center     Atomic      Atomic             Coordinates (Angstroms)
 Number     Number       Type             X           Y           Z
 ---------------------------------------------------------------------
      1          6           0       -0.683829    0.286961   -0.047809
      2          7           0        0.647312   -0.069390   -0.055513
      3          6           0        1.174594   -1.351759    0.005296
      4          8           0        0.493557   -2.370056    0.071954
      5          7           0        2.528684   -1.356959   -0.026851
      6          6           0        3.259117   -2.595109    0.117427
      7          6           0        4.719517   -2.379964   -0.260177
      8          6           0        5.545154   -3.647591   -0.065361
      9          6           0       -1.757367   -0.616750    0.003090
     10          6           0       -3.068932   -0.149344    0.003400
     11          6           0       -3.334211    1.217134   -0.047547
     12          6           0       -2.277283    2.116860   -0.097117
     13          6           0       -0.970955    1.663689   -0.097041
     14          1           0        1.312312    0.726209   -0.097568
     15          1           0        3.058087   -0.474184    0.023892
     16          1           0        2.802056   -3.357084   -0.521072
     17          1           0        3.189992   -2.971812    1.148039
     18          1           0        5.128315   -1.559082    0.336445
     19          1           0        4.768254   -2.048109   -1.301659
     20          1           0        5.529842   -3.970719    0.979483
     21          1           0        6.588804   -3.493327   -0.348964
     22          1           0        5.153825   -4.471479   -0.669580
     23          1           0       -1.553797   -1.675807    0.042612
     24          6           0       -4.192626   -1.146809    0.059180
     25         17           0       -4.968044    1.847617   -0.051592
     26          1           0       -2.486651    3.179272   -0.135628
     27          1           0       -0.141499    2.363552   -0.134049
     28          9           0       -4.976785   -0.975066    1.140042
     29          9           0       -5.001633   -1.067733   -1.014225
     30          9           0       -3.753166   -2.410917    0.108423
     31          8           0        2.224130    2.210837   -0.134401
     32          8           0        4.088910    1.002940    0.129227
     33          6           0        3.467258    2.081174    0.008377
     34          6           0        4.276493    3.387242    0.034321
     35          6           0        5.777942    3.190991    0.190293
     36          1           0        3.871074    3.998835    0.846629
     37          1           0        4.040827    3.929019   -0.886997
     38          1           0        6.003387    2.657074    1.114864
     39          1           0        6.306821    4.149093    0.203769
     40          1           0        6.175373    2.586819   -0.626999
 ---------------------------------------------------------------------

 SCF Done:  E(RM062X) =  -1638.67406267     A.U. after    2 cycles

 The electronic state is 1-A.
 Alpha  occ. eigenvalues -- -102.58983 -25.18630 -25.18279 -25.18278 -19.46760
 Alpha  occ. eigenvalues --  -19.44539 -19.44276 -14.65122 -14.63282 -10.71159
 Alpha  occ. eigenvalues --  -10.55119 -10.51626 -10.50759 -10.49802 -10.48410
 Alpha  occ. eigenvalues --  -10.46487 -10.46104 -10.45321 -10.45089 -10.44186
 Alpha  occ. eigenvalues --  -10.43558 -10.41859 -10.41796  -9.73258  -7.45768
 Alpha  occ. eigenvalues --   -7.45098  -7.45097  -1.37826  -1.28426  -1.28089
 Alpha  occ. eigenvalues --   -1.05604  -1.03588  -0.94274  -0.93705  -0.91449
 Alpha  occ. eigenvalues --   -0.90113  -0.84136  -0.79734  -0.78371  -0.75137
 Alpha  occ. eigenvalues --   -0.73707  -0.71303  -0.67609  -0.63914  -0.62009
 Alpha  occ. eigenvalues --   -0.61477  -0.60157  -0.59750  -0.58404  -0.56903
 Alpha  occ. eigenvalues --   -0.54283  -0.51547  -0.48629  -0.48446  -0.48286
 Alpha  occ. eigenvalues --   -0.47198  -0.46007  -0.45180  -0.44786  -0.44142
 Alpha  occ. eigenvalues --   -0.43266  -0.42756  -0.42099  -0.41757  -0.41184
 Alpha  occ. eigenvalues --   -0.41054  -0.40915  -0.39665  -0.38584  -0.38202
 Alpha  occ. eigenvalues --   -0.37927  -0.36800  -0.35927  -0.35195  -0.34419
 Alpha  occ. eigenvalues --   -0.33915  -0.33101  -0.32846  -0.32141  -0.31136
 Alpha  occ. eigenvalues --   -0.30604  -0.29802  -0.29077  -0.28973  -0.26241
 Alpha  occ. eigenvalues --   -0.23117  -0.23011  -0.20370  -0.19894  -0.19519
 Alpha  occ. eigenvalues --   -0.19319  -0.15658
 Alpha virt. eigenvalues --    0.09337   0.09546   0.09728   0.10295   0.10876
 Alpha virt. eigenvalues --    0.11251   0.11675   0.11869   0.12075   0.12611
 Alpha virt. eigenvalues --    0.13160   0.13689   0.13869   0.14013   0.14772

 Mulliken charges:
               1
     1  C   -0.707811
     2  N   -0.438819
     3  C    0.047011
     4  O   -0.400126
     5  N   -0.335726
     6  C   -0.467587
     7  C   -0.126566
     8  C   -1.075343
     9  C   -0.076744
    10  C   -1.213422
    11  C    0.561715
    12  C   -0.121437
    13  C   -0.220876
    14  H    0.465332
    15  H    0.448138
    16  H    0.236521
    17  H    0.238696
    18  H    0.282797
    19  H    0.259964
    20  H    0.247787
    21  H    0.252241
    22  H    0.245672
    23  H    0.336136
    24  C    0.656788
    25  Cl   0.401759
    26  H    0.256153
    27  H    0.347215
    28  F   -0.054816
    29  F   -0.054042
    30  F   -0.131653
    31  O   -0.484723
    32  O   -0.432005
    33  C   -0.003717
    34  C   -0.162800
    35  C   -1.006750
    36  H    0.243470
    37  H    0.243718
    38  H    0.256872
    39  H    0.229420
    40  H    0.257557
 Sum of Mulliken charges =  -1.00000

 Dipole moment (field-independent basis, Debye):
    X=             -1.5844    Y=              0.0474    Z=             -0.0992  Tot=              1.5883
 Quadrupole moment (field-independent basis, Debye-Ang):
   XX=           -214.2110   YY=           -166.8386   ZZ=           -148.5650
   XY=            -12.1654   XZ=             -0.4006   YZ=              0.7083

  Exact polarizability: 299.227 -25.326 224.630   1.223  -3.418 133.389
 Approx polarizability: 298.694 -20.523 264.762   1.136  -4.878 178.517

                      1                      2                      3
                      A                      A                      A
 Frequencies --     14.8989                18.9930                31.9475
 Red. masses --      5.2023                 5.3370                 2.4967
 Frc consts  --      0.0007                 0.0011                 0.0015
 IR Inten    --      0.1744                 0.6807                 0.1474

                      4                      5                      6
                      A                      A                      A
 Frequencies --     38.2966                40.5519                49.7122
 Red. masses --      3.1318                 3.3128                 8.8087
 Frc consts  --      0.0027                 0.0032                 0.0128
 IR Inten    --      0.1528                 0.2977                 0.6390

                      7                      8                      9
                      A                      A                      A
 Frequencies --     52.0262                58.4766                61.1053
 Red. masses --      5.4163                 3.9111                 3.4634
 Frc consts  --      0.0086                 0.0079                 0.0076
 IR Inten    --      2.2046                 2.2377                 0.8634

                     10                     11                     12
                      A                      A                      A
 Frequencies --     68.1893                76.3773               102.7579
 Red. masses --      6.6859                 5.3752                 7.0965
 Frc consts  --      0.0183                 0.0185                 0.0441
 IR Inten    --      0.2685                 6.3907                 7.2736

                     13                     14                     15
                      A                      A                      A
 Frequencies --    120.3556               125.0126               147.3069
 Red. masses --      5.5752                 6.6188                 5.8286
 Frc consts  --      0.0476                 0.0609                 0.0745
 IR Inten    --      2.9324                 4.8907                 2.1759

                     16                     17                     18
                      A                      A                      A
 Frequencies --    167.7598               172.0231               193.0833
 Red. masses --      5.0790                12.9908                 3.8437
 Frc consts  --      0.0842                 0.2265                 0.0844
 IR Inten    --     12.4393                 4.6397                 9.8864

                     19                     20                     21
                      A                      A                      A
 Frequencies --    218.5474               230.7942               236.9859
 Red. masses --      1.1240                 6.1248                 1.1728
 Frc consts  --      0.0316                 0.1922                 0.0388
 IR Inten    --      0.4976                 0.5634                 0.3667

                     22                     23                     24
                      A                      A                      A
 Frequencies --    265.0495               298.2397               308.0772
 Red. masses --      5.6588                 3.9995                16.0406
 Frc consts  --      0.2342                 0.2096                 0.8970
 IR Inten    --      9.0473                11.7011                 4.3954

                     25                     26                     27
                      A                      A                      A
 Frequencies --    316.2472               346.5459               350.7243
 Red. masses --      7.2492                 4.8083                 6.6153
 Frc consts  --      0.4272                 0.3402                 0.4794
 IR Inten    --      0.1828                12.3740                 0.1736

                     28                     29                     30
                      A                      A                      A
 Frequencies --    379.9588               422.0743               458.8218
 Red. masses --      8.9007                 5.5980                 6.7955
 Frc consts  --      0.7571                 0.5876                 0.8429
 IR Inten    --      1.9349                16.7763                 3.4007

                     31                     32                     33
                      A                      A                      A
 Frequencies --    468.1384               520.2373               531.5469
 Red. masses --      3.8846                 5.8624                 6.2594
 Frc consts  --      0.5016                 0.9348                 1.0420
 IR Inten    --      2.1822                48.4745                11.0996

                     34                     35                     36
                      A                      A                      A
 Frequencies --    546.3592               586.2100               599.5094
 Red. masses --      8.1153                 1.9340                 9.2392
 Frc consts  --      1.4273                 0.3916                 1.9565
 IR Inten    --      6.4106                 0.4687                 6.7791

                     37                     38                     39
                      A                      A                      A
 Frequencies --    658.6921               659.3154               673.0956
 Red. masses --      4.8130                 4.5524                 8.5492
 Frc consts  --      1.2304                 1.1660                 2.2821
 IR Inten    --      3.8456                33.3006                25.9128

                     40                     41                     42
                      A                      A                      A
 Frequencies --    703.7468               735.5121               751.8638
 Red. masses --      7.1943                 5.2613                 1.0982
 Frc consts  --      2.0993                 1.6770                 0.3658
 IR Inten    --     14.7631                 0.2004                 2.2526

                     43                     44                     45
                      A                      A                      A
 Frequencies --    767.6051               778.9498               789.6992
 Red. masses --      2.4393                 5.8878                 6.7248
 Frc consts  --      0.8468                 2.1048                 2.4709
 IR Inten    --     30.3382                12.0002                12.2920

                     46                     47                     48
                      A                      A                      A
 Frequencies --    814.3596               824.2181               861.3156
 Red. masses --      1.8019                 1.4547                 1.3676
 Frc consts  --      0.7041                 0.5823                 0.5978
 IR Inten    --      7.4877                10.2326                10.8388

                     49                     50                     51
                      A                      A                      A
 Frequencies --    888.8887               900.3733               921.5790
 Red. masses --      4.0546                 1.1839                 1.8144
 Frc consts  --      1.8875                 0.5655                 0.9079
 IR Inten    --     47.6984                 5.2356                 6.6244

                     52                     53                     54
                      A                      A                      A
 Frequencies --    944.9867               951.6454               955.4759
 Red. masses --      1.4075                 1.5412                 2.0957
 Frc consts  --      0.7406                 0.8223                 1.1273
 IR Inten    --     32.8486                68.5821                39.3557

                     55                     56                     57
                      A                      A                      A
 Frequencies --   1009.0304              1019.6893              1043.1397
 Red. masses --      1.2831                 1.6838                 5.8550
 Frc consts  --      0.7697                 1.0315                 3.7537
 IR Inten    --      6.5907                 3.3504                21.1635

                     58                     59                     60
                      A                      A                      A
 Frequencies --   1047.9452              1079.2375              1108.8011
 Red. masses --      3.8701                 2.7322                 1.7982
 Frc consts  --      2.5041                 1.8750                 1.3025
 IR Inten    --     16.4721                 7.7642                 1.0361

                     61                     62                     63
                      A                      A                      A
 Frequencies --   1110.6368              1148.0211              1152.5383
 Red. masses --      2.3486                 2.2936                 2.4794
 Frc consts  --      1.7069                 1.7811                 1.9405
 IR Inten    --      3.8542                66.0111                17.4828

                     64                     65                     66
                      A                      A                      A
 Frequencies --   1177.8902              1182.0566              1185.4619
 Red. masses --      1.8319                12.7360                 1.9368
 Frc consts  --      1.4974                10.4848                 1.6037
 IR Inten    --      3.9017               271.6817                53.9082

                     67                     68                     69
                      A                      A                      A
 Frequencies --   1192.8528              1223.4320              1278.7091
 Red. masses --      3.5214                 2.8550                 1.2914
 Frc consts  --      2.9521                 2.5178                 1.2441
 IR Inten    --      7.4240               246.7508                 0.2419

                     70                     71                     72
                      A                      A                      A
 Frequencies --   1279.8270              1290.2430              1300.4386
 Red. masses --      2.7556                 1.1845                 1.5893
 Frc consts  --      2.6593                 1.1618                 1.5835
 IR Inten    --     83.7459                 0.4906               210.2782

                     73                     74                     75
                      A                      A                      A
 Frequencies --   1316.9280              1321.2766              1328.2737
 Red. masses --      3.0312                 1.7878                 1.6449
 Frc consts  --      3.0974                 1.8389                 1.7099
 IR Inten    --    202.1145               172.0226                40.0994

                     76                     77                     78
                      A                      A                      A
 Frequencies --   1333.3074              1369.3329              1399.5957
 Red. masses --      1.2570                 1.7901                 3.9216
 Frc consts  --      1.3166                 1.9777                 4.5260
 IR Inten    --    102.4873               302.5443               157.0785

                     79                     80                     81
                      A                      A                      A
 Frequencies --   1417.6937              1421.2097              1430.8303
 Red. masses --      1.3163                 1.2822                 1.6551
 Frc consts  --      1.5588                 1.5259                 1.9964
 IR Inten    --     18.1376                 2.9730                 1.3037

                     82                     83                     84
                      A                      A                      A
 Frequencies --   1460.4603              1476.7015              1485.9178
 Red. masses --      4.5665                 5.4573                 1.1644
 Frc consts  --      5.7387                 7.0115                 1.5148
 IR Inten    --    417.7301               191.6228                21.4394

                     85                     86                     87
                      A                      A                      A
 Frequencies --   1508.5016              1509.2151              1521.1571
 Red. masses --      1.0495                 1.0510                 1.0526
 Frc consts  --      1.4071                 1.4104                 1.4351
 IR Inten    --      6.3663                 6.7538                27.6169

                     88                     89                     90
                      A                      A                      A
 Frequencies --   1521.1782              1525.0473              1539.4693
 Red. masses --      1.0661                 1.0693                 1.2549
 Frc consts  --      1.4535                 1.4652                 1.7523
 IR Inten    --     27.0866                 1.9779               125.1198

                     91                     92                     93
                      A                      A                      A
 Frequencies --   1541.8788              1617.9834              1638.9216
 Red. masses --      2.1599                 3.3712                 2.9436
 Frc consts  --      3.0254                 5.1998                 4.6585
 IR Inten    --    267.5825                34.9911                36.5089

                     94                     95                     96
                      A                      A                      A
 Frequencies --   1671.1862              1686.8623              1713.9019
 Red. masses --      5.8578                 2.5000                 2.9864
 Frc consts  --      9.6391                 4.1914                 5.1686
 IR Inten    --    333.9422               489.6162               720.8438

                     97                     98                     99
                      A                      A                      A
 Frequencies --   1789.8132              3015.6251              3055.9740
 Red. masses --      2.6656                 1.0719                 1.0368
 Frc consts  --      5.0311                 5.7434                 5.7047
 IR Inten    --    360.3494                71.2777                48.0435

                    100                    101                    102
                      A                      A                      A
 Frequencies --   3059.4159              3070.5107              3075.2491
 Red. masses --      1.0432                 1.0596                 1.0622
 Frc consts  --      5.7531                 5.8860                 5.9188
 IR Inten    --    112.7172                29.9378                13.1398

                    103                    104                    105
                      A                      A                      A
 Frequencies --   3085.1883              3092.9421              3101.0859
 Red. masses --      1.0908                 1.0942                 1.1012
 Frc consts  --      6.1175                 6.1671                 6.2395
 IR Inten    --     24.6349               935.2090                12.3460

                    106                    107                    108
                      A                      A                      A
 Frequencies --   3105.6115              3128.8145              3129.7285
 Red. masses --      1.1018                 1.1024                 1.0964
 Frc consts  --      6.2609                 6.3586                 6.3278
 IR Inten    --      1.5141                58.8046                44.2737

                    109                    110                    111
                      A                      A                      A
 Frequencies --   3130.2969              3149.6547              3206.1418
 Red. masses --      1.1022                 1.1023                 1.0918
 Frc consts  --      6.3632                 6.4427                 6.6124
 IR Inten    --     51.2448                37.0318                 7.2217

                    112                    113                    114
                      A                      A                      A
 Frequencies --   3229.3552              3251.8034              3285.8400
 Red. masses --      1.0939                 1.0889                 1.0906
 Frc consts  --      6.7214                 6.7839                 6.9377
 IR Inten    --      6.1136              1387.2520                23.4100

 - Thermochemistry -
 -------------------
 Temperature   298.150 Kelvin.  Pressure   1.00000 Atm.
 Atom     1 has atomic number  6 and mass  12.00000

 Molecular mass:   353.08798 amu.
 Principal axes and moments of inertia in atomic units:
                           1         2         3
     Eigenvalues --  5215.96344********************
           X            0.99996  -0.00871   0.00042
           Y            0.00871   0.99996   0.00173
           Z           -0.00044  -0.00173   1.00000
 This molecule is an asymmetric top.
 Rotational symmetry number  1.
 Warning -- assumption of classical behavior for rotation
           may cause significant error
 Rotational temperatures (Kelvin)      0.01661     0.00484     0.00381
 Rotational constants (GHZ):           0.34600     0.10079     0.07941
 Zero-point vibrational energy     806008.5 (Joules/Mol)
                                  192.64065 (Kcal/Mol)
 Warning -- explicit consideration of  36 degrees of freedom as
           vibrations may cause significant error
 Vibrational temperatures:     21.44    27.33    45.97    55.10    58.35
          (Kelvin)             71.52    74.85    84.13    87.92    98.11
                              109.89   147.85   173.16   179.87   211.94
                              241.37   247.50   277.80   314.44   332.06
                              340.97   381.35   429.10   443.25   455.01
                              498.60   504.61   546.68   607.27   660.14
                              673.55   748.50   764.78   786.09   843.42
                              862.56   947.71   948.61   968.43  1012.53
                             1058.24  1081.76  1104.41  1120.73  1136.20
                             1171.68  1185.86  1239.24  1278.91  1295.43
                             1325.95  1359.62  1369.20  1374.71  1451.77
                             1467.10  1500.84  1507.76  1552.78  1595.32
                             1597.96  1651.74  1658.24  1694.72  1700.71
                             1705.61  1716.25  1760.24  1839.77  1841.38
                             1856.37  1871.04  1894.76  1901.02  1911.09
                             1918.33  1970.16  2013.70  2039.74  2044.80
                             2058.64  2101.27  2124.64  2137.90  2170.39
                             2171.42  2188.60  2188.63  2194.20  2214.95
                             2218.42  2327.91  2358.04  2404.46  2427.02
                             2465.92  2575.14  4338.81  4396.86  4401.81
                             4417.77  4424.59  4438.89  4450.05  4461.77
                             4468.28  4501.66  4502.98  4503.79  4531.64
                             4612.92  4646.32  4678.61  4727.58

 Zero-point correction=                           0.306992 (Hartree/Particle)
 Thermal correction to Energy=                    0.331644
 Thermal correction to Enthalpy=                  0.332588
 Thermal correction to Gibbs Free Energy=         0.246724
 Sum of electronic and zero-point Energies=          -1638.367070
 Sum of electronic and thermal Energies=             -1638.342419
 Sum of electronic and thermal Enthalpies=           -1638.341474
 Sum of electronic and thermal Free Energies=        -1638.427338

                     E (Thermal)             CV                S
                      KCal/Mol        Cal/Mol-Kelvin    Cal/Mol-Kelvin
 Total                  208.110             85.586            180.716
 Electronic               0.000              0.000              0.000
 Translational            0.889              2.981             43.478
 Rotational               0.889              2.981             36.005
 Vibrational            206.332             79.625            101.232
 Vibration     1          0.593              1.986              7.219
 Vibration     2          0.593              1.986              6.737
 Vibration     3          0.594              1.983              5.705
 Vibration     4          0.594              1.982              5.345
 Vibration     5          0.594              1.981              5.232
 Vibration     6          0.595              1.978              4.829
 Vibration     7          0.596              1.977              4.739
 Vibration     8          0.596              1.974              4.508
 Vibration     9          0.597              1.973              4.421
 Vibration    10          0.598              1.969              4.205
 Vibration    11          0.599              1.965              3.982
 Vibration    12          0.605              1.947              3.401
 Vibration    13          0.609              1.932              3.095
 Vibration    14          0.610              1.928              3.021
 Vibration    15          0.617              1.906              2.707
 Vibration    16          0.624              1.882              2.460
 Vibration    17          0.626              1.877              2.413
 Vibration    18          0.635              1.849              2.198
 Vibration    19          0.646              1.813              1.971
 Vibration    20          0.652              1.794              1.873
 Vibration    21          0.656              1.784              1.825
 Vibration    22          0.671              1.737              1.628
 Vibration    23          0.691              1.677              1.427
 Vibration    24          0.698              1.658              1.373
 Vibration    25          0.703              1.643              1.329
 Vibration    26          0.725              1.582              1.182
 Vibration    27          0.728              1.574              1.163
 Vibration    28          0.750              1.513              1.039
 Vibration    29          0.784              1.422              0.885
 Vibration    30          0.817              1.341              0.770
 Vibration    31          0.825              1.321              0.743
 Vibration    32          0.875              1.205              0.609
 Vibration    33          0.887              1.180              0.584
 Vibration    34          0.902              1.148              0.552
 Vibration    35          0.943              1.061              0.474
 Vibration    36          0.958              1.033              0.451

 Optimization completed.
    -- Stationary point found.
 Normal termination of Gaussian 09 at Thu Nov 14 23:23:36 2019.
