 Gaussian 09, Revision E.01,

 ----------------------------------------------------------------------
 # M062X/6-311+G* SCF=Tight INT(grid=ultrafine) OPT IOP(2/17=4) Empiric
 alDispersion=GD3 maxdisk=2147483648
 ----------------------------------------------------------------------

 -------------------------
 29.M062X_6-311pGd_opt_GD3
 -------------------------
 Symbolic Z-matrix:
 Charge =  0 Multiplicity = 1

 SCF Done:  E(RM062X) =  -1370.79443712     A.U. after   17 cycles
 Optimization completed.
    -- Stationary point found.
 Normal termination of Gaussian 09 at Thu Nov 14 09:28:15 2019.
 Gaussian 09:  ES64L-G09RevE.01 30-Nov-2015

 ----------------------------------------------------------------------
 # M062X/6-311+G* SCF=Tight INT(grid=ultrafine) EmpiricalDispersion=GD3
  Freq=Noraman maxdisk=2147483648 geom=check guess=read IOP(2/17=4)
 ----------------------------------------------------------------------

 -------------------------
 29.M062X_6-311pGd_opt_GD3
 -------------------------
 Structure from the checkpoint file:  "29.M062X_6-311pGd_opt_GD3.chk"
 Charge =  0 Multiplicity = 1

                         Standard orientation:
 ---------------------------------------------------------------------
 Center     Atomic      Atomic             Coordinates (Angstroms)
 Number     Number       Type             X           Y           Z
 ---------------------------------------------------------------------
      1          6           0       -0.043779   -1.076731    0.050012
      2          7           0       -1.438586   -1.183420    0.118322
      3          6           0       -2.365756   -0.159453   -0.046859
      4          8           0       -2.067066    0.987772   -0.294225
      5          7           0       -3.666256   -0.586568    0.071236
      6          6           0       -4.734443    0.405301    0.044759
      7          6           0       -6.092696   -0.278412   -0.006634
      8          6           0       -7.229576    0.737961   -0.045082
      9          6           0        0.637585    0.143249    0.062497
     10          6           0        2.027585    0.163664    0.024641
     11          6           0        2.754342   -1.024771   -0.024468
     12          6           0        2.079134   -2.236889   -0.037557
     13          6           0        0.695430   -2.261256   -0.001850
     14          1           0       -1.798222   -2.125764    0.098877
     15          1           0       -3.842684   -1.415748    0.620320
     16          1           0       -4.584649    1.027900   -0.838666
     17          1           0       -4.668774    1.068090    0.915775
     18          1           0       -6.211233   -0.927000    0.869628
     19          1           0       -6.132463   -0.926189   -0.887358
     20          1           0       -7.215790    1.379632    0.839127
     21          1           0       -8.201383    0.243638   -0.082328
     22          1           0       -7.149379    1.382076   -0.923831
     23          1           0        0.085961    1.069799    0.091851
     24          6           0        2.732857    1.498232    0.041020
     25         17           0        4.491655   -1.041543   -0.072051
     26          1           0        2.643181   -3.160298   -0.078025
     27          1           0        0.183321   -3.218558   -0.013632
     28          9           0        3.540991    1.619797    1.103248
     29          9           0        3.484659    1.677743   -1.053129
     30          9           0        1.867716    2.517018    0.091787
 ---------------------------------------------------------------------

 SCF Done:  E(RM062X) =  -1370.79443712     A.U. after    2 cycles

 The electronic state is 1-A.
 Alpha  occ. eigenvalues -- -102.68288 -25.27414 -25.27001 -25.26988 -19.60501
 Alpha  occ. eigenvalues --  -14.80530 -14.78448 -10.80221 -10.69180 -10.62348
 Alpha  occ. eigenvalues --  -10.61997 -10.58941 -10.58276 -10.57574 -10.57491
 Alpha  occ. eigenvalues --  -10.56774 -10.55374 -10.53940  -9.82565  -7.55089
 Alpha  occ. eigenvalues --   -7.54391  -7.54382  -1.46740  -1.37307  -1.36993
 Alpha  occ. eigenvalues --   -1.19952  -1.08145  -1.04819  -1.01517  -0.95077
 Alpha  occ. eigenvalues --   -0.90621  -0.89804  -0.85185  -0.81459  -0.79042
 Alpha  occ. eigenvalues --   -0.74720  -0.72880  -0.70341  -0.70018  -0.69005
 Alpha  occ. eigenvalues --   -0.68691  -0.66994  -0.64854  -0.60435  -0.58123
 Alpha  occ. eigenvalues --   -0.57371  -0.57317  -0.57151  -0.55729  -0.54871
 Alpha  occ. eigenvalues --   -0.54069  -0.53297  -0.52951  -0.51811  -0.51516
 Alpha  occ. eigenvalues --   -0.50777  -0.49608  -0.49314  -0.48394  -0.47137
 Alpha  occ. eigenvalues --   -0.46168  -0.44580  -0.44174  -0.43352  -0.42053
 Alpha  occ. eigenvalues --   -0.41390  -0.38478  -0.37770  -0.36615  -0.34216
 Alpha  occ. eigenvalues --   -0.33849  -0.28546
 Alpha virt. eigenvalues --   -0.01565  -0.01484  -0.00216   0.00826   0.01699
 Alpha virt. eigenvalues --    0.02270   0.02802   0.02862   0.04053   0.04461
 Alpha virt. eigenvalues --    0.04850   0.05421   0.05929   0.06425   0.06636

 Mulliken charges:
               1
     1  C   -0.962760
     2  N   -0.328350
     3  C    0.047696
     4  O   -0.327197
     5  N   -0.282915
     6  C   -0.537755
     7  C   -0.101584
     8  C   -1.026553
     9  C   -0.039386
    10  C   -1.087623
    11  C    1.018820
    12  C   -0.445089
    13  C   -0.105240
    14  H    0.329228
    15  H    0.322808
    16  H    0.271391
    17  H    0.262571
    18  H    0.231124
    19  H    0.262211
    20  H    0.260364
    21  H    0.269363
    22  H    0.262357
    23  H    0.333206
    24  C    0.612284
    25  Cl   0.438884
    26  H    0.277551
    27  H    0.233953
    28  F   -0.032818
    29  F   -0.032734
    30  F   -0.123807
 Sum of Mulliken charges =  -0.00000

 Dipole moment (field-independent basis, Debye):
    X=             -5.9270    Y=             -5.4988    Z=              1.0504  Tot=              8.1529
 Quadrupole moment (field-independent basis, Debye-Ang):
   XX=           -102.5051   YY=           -105.8878   ZZ=           -114.9761
   XY=              2.0683   XZ=             -3.6373   YZ=             -0.5439

  Exact polarizability: 236.037  -7.182 152.217  -2.203  -0.829  99.676
 Approx polarizability: 234.429  -1.021 200.835  -2.989  -2.173 133.040

                      1                      2                      3
                      A                      A                      A
 Frequencies --      8.2098                18.4175                51.0641
 Red. masses --      2.5810                 5.8057                 5.0290
 Frc consts  --      0.0001                 0.0012                 0.0077
 IR Inten    --      2.9473                 0.4979                 3.5316

                      4                      5                      6
                      A                      A                      A
 Frequencies --     52.5410                60.6315                74.8275
 Red. masses --      5.8900                 5.1781                 3.3047
 Frc consts  --      0.0096                 0.0112                 0.0109
 IR Inten    --      0.1091                 3.6736                 0.4979

                      7                      8                      9
                      A                      A                      A
 Frequencies --    111.6259               124.5135               146.4551
 Red. masses --      5.2249                 6.4029                 7.3019
 Frc consts  --      0.0384                 0.0585                 0.0923
 IR Inten    --      0.1271                 2.6346                 0.2043

                     10                     11                     12
                      A                      A                      A
 Frequencies --    172.0277               189.3258               226.0018
 Red. masses --     10.1634                 2.8468                 5.8562
 Frc consts  --      0.1772                 0.0601                 0.1762
 IR Inten    --      2.9954                 0.5487                 0.7916

                     13                     14                     15
                      A                      A                      A
 Frequencies --    240.1353               250.7175               307.8811
 Red. masses --      1.1314                 6.1316                13.9531
 Frc consts  --      0.0384                 0.2271                 0.7793
 IR Inten    --      0.0456                 8.6263                 1.6424

                     16                     17                     18
                      A                      A                      A
 Frequencies --    312.1181               337.9692               347.7037
 Red. masses --      5.0159                 3.4776                 4.8791
 Frc consts  --      0.2879                 0.2340                 0.3475
 IR Inten    --      0.9335                42.9514                 0.7558

                     19                     20                     21
                      A                      A                      A
 Frequencies --    372.3965               379.0916               419.7847
 Red. masses --      1.7258                 7.9709                 3.8083
 Frc consts  --      0.1410                 0.6749                 0.3954
 IR Inten    --     47.9755                 3.3825                14.8794

                     22                     23                     24
                      A                      A                      A
 Frequencies --    458.9649               464.8919               489.1472
 Red. masses --      6.1446                 3.8724                 1.3856
 Frc consts  --      0.7626                 0.4931                 0.1953
 IR Inten    --      5.4126                 6.1591               103.8393

                     25                     26                     27
                      A                      A                      A
 Frequencies --    533.9114               543.0297               598.9974
 Red. masses --      4.4922                 7.4413                 8.5981
 Frc consts  --      0.7545                 1.2928                 1.8176
 IR Inten    --     40.0712                11.9838                 4.0467

                     28                     29                     30
                      A                      A                      A
 Frequencies --    649.5618               677.0515               711.1796
 Red. masses --      4.6615                 8.3382                 6.7675
 Frc consts  --      1.1588                 2.2520                 2.0167
 IR Inten    --      3.8639                21.1038                 9.2383

                     31                     32                     33
                      A                      A                      A
 Frequencies --    744.7805               754.1696               772.4292
 Red. masses --      4.8959                 1.2492                 4.4070
 Frc consts  --      1.6001                 0.4186                 1.5492
 IR Inten    --      0.7892                 7.7708                 7.6881

                     34                     35                     36
                      A                      A                      A
 Frequencies --    777.4512               802.0034               837.6062
 Red. masses --      8.0647                 5.8997                 1.4556
 Frc consts  --      2.8720                 2.2358                 0.6017
 IR Inten    --      5.2388                17.7420                36.8822

                     37                     38                     39
                      A                      A                      A
 Frequencies --    901.7348               927.6283               940.3888
 Red. masses --      1.1869                 1.8689                 1.4362
 Frc consts  --      0.5686                 0.9475                 0.7483
 IR Inten    --      2.4109                 1.9846                20.5326

                     40                     41                     42
                      A                      A                      A
 Frequencies --    954.4523               969.1384              1043.8454
 Red. masses --      4.5471                 1.3304                 4.1754
 Frc consts  --      2.4406                 0.7362                 2.6805
 IR Inten    --     21.3903                 2.5841                 2.1362

                     43                     44                     45
                      A                      A                      A
 Frequencies --   1053.5833              1076.0338              1142.6978
 Red. masses --      5.4681                 2.6539                 2.9858
 Frc consts  --      3.5762                 1.8105                 2.2971
 IR Inten    --     28.2007                 4.8604                15.7991

                     46                     47                     48
                      A                      A                      A
 Frequencies --   1155.1229              1165.3219              1181.0150
 Red. masses --      2.3596                 2.5369                 1.6666
 Frc consts  --      1.8550                 2.0298                 1.3696
 IR Inten    --     74.4146                 2.7276                 0.0968

                     49                     50                     51
                      A                      A                      A
 Frequencies --   1184.2920              1209.9052              1230.6598
 Red. masses --      1.6517                12.7664                 2.4129
 Frc consts  --      1.3649                11.0108                 2.1531
 IR Inten    --      4.3631               271.3255               562.1904

                     52                     53                     54
                      A                      A                      A
 Frequencies --   1237.3358              1273.4750              1289.4197
 Red. masses --      2.9648                 2.6096                 1.3058
 Frc consts  --      2.6744                 2.4935                 1.2792
 IR Inten    --      4.4482                 7.6166                79.4633

                     55                     56                     57
                      A                      A                      A
 Frequencies --   1300.3499              1311.8781              1333.2650
 Red. masses --      2.4379                 2.0738                 1.1806
 Frc consts  --      2.4288                 2.1028                 1.2364
 IR Inten    --    140.6047                67.7038                35.6867

                     58                     59                     60
                      A                      A                      A
 Frequencies --   1348.1673              1372.1547              1424.6151
 Red. masses --      1.2944                 3.7873                 1.5333
 Frc consts  --      1.3861                 4.2013                 1.8334
 IR Inten    --      9.0031               173.6435                 1.2914

                     61                     62                     63
                      A                      A                      A
 Frequencies --   1432.3004              1473.6698              1509.4093
 Red. masses --      1.2973                 5.0446                 1.0616
 Frc consts  --      1.5681                 6.4547                 1.4251
 IR Inten    --      2.3304               303.8269                 5.5778

                     64                     65                     66
                      A                      A                      A
 Frequencies --   1522.7176              1524.0112              1527.7518
 Red. masses --      1.0583                 1.0702                 1.7686
 Frc consts  --      1.4457                 1.4645                 2.4321
 IR Inten    --     31.8168                 2.9881               245.7556

                     67                     68                     69
                      A                      A                      A
 Frequencies --   1538.0236              1550.5281              1585.7163
 Red. masses --      1.1993                 1.9541                 2.3661
 Frc consts  --      1.6715                 2.7680                 3.5053
 IR Inten    --     32.4054                95.1259               808.6442

                     70                     71                     72
                      A                      A                      A
 Frequencies --   1663.4331              1687.8996              1820.7371
 Red. masses --      5.5963                 6.1775                 8.6803
 Frc consts  --      9.1236                10.3694                16.9543
 IR Inten    --     82.8920                10.5311               268.9687

                     73                     74                     75
                      A                      A                      A
 Frequencies --   3051.8576              3054.4803              3072.3446
 Red. masses --      1.0640                 1.0727                 1.0370
 Frc consts  --      5.8390                 5.8964                 5.7670
 IR Inten    --     15.7781                33.8507                28.2076

                     76                     77                     78
                      A                      A                      A
 Frequencies --   3099.1232              3134.5065              3143.4471
 Red. masses --      1.0954                 1.0974                 1.1020
 Frc consts  --      6.1990                 6.3526                 6.4154
 IR Inten    --     13.5112                 0.8505                45.6497

                     79                     80                     81
                      A                      A                      A
 Frequencies --   3150.4815              3200.8656              3240.6066
 Red. masses --      1.1020                 1.0903                 1.0941
 Frc consts  --      6.4447                 6.5818                 6.7696
 IR Inten    --     26.4122                10.3642                 0.5811

                     82                     83                     84
                      A                      A                      A
 Frequencies --   3291.5366              3633.9084              3652.1211
 Red. masses --      1.0914                 1.0770                 1.0767
 Frc consts  --      6.9668                 8.3794                 8.4613
 IR Inten    --     19.5546                20.8824                29.6452

 - Thermochemistry -
 -------------------
 Temperature   298.150 Kelvin.  Pressure   1.00000 Atm.
 Atom     1 has atomic number  6 and mass  12.00000

 Molecular mass:   280.05903 amu.
 Principal axes and moments of inertia in atomic units:
                           1         2         3
     Eigenvalues --  2048.81437********************
           X            0.99995  -0.00966  -0.00059
           Y            0.00966   0.99995  -0.00218
           Z            0.00061   0.00218   1.00000
 This molecule is an asymmetric top.
 Rotational symmetry number  1.
 Warning -- assumption of classical behavior for rotation
           may cause significant error
 Rotational temperatures (Kelvin)      0.04228     0.00677     0.00598
 Rotational constants (GHZ):           0.88087     0.14103     0.12465
 Zero-point vibrational energy     595779.6 (Joules/Mol)
                                  142.39474 (Kcal/Mol)
 Warning -- explicit consideration of  27 degrees of freedom as
           vibrations may cause significant error
 Vibrational temperatures:     11.81    26.50    73.47    75.59    87.24
          (Kelvin)            107.66   160.60   179.15   210.72   247.51
                              272.40   325.17   345.50   360.73   442.97
                              449.07   486.26   500.27   535.79   545.43
                              603.98   660.35   668.87   703.77   768.18
                              781.30   861.82   934.57   974.12  1023.23
                             1071.57  1085.08  1111.35  1118.58  1153.90
                             1205.13  1297.39  1334.65  1353.01  1373.24
                             1394.37  1501.86  1515.87  1548.17  1644.09
                             1661.96  1676.64  1699.22  1703.93  1740.78
                             1770.64  1780.25  1832.24  1855.18  1870.91
                             1887.50  1918.27  1939.71  1974.22  2049.70
                             2060.76  2120.28  2171.70  2190.85  2192.71
                             2198.09  2212.87  2230.86  2281.49  2393.31
                             2428.51  2619.63  4390.94  4394.71  4420.41
                             4458.94  4509.85  4522.71  4532.83  4605.33
                             4662.50  4735.78  5228.38  5254.58

 Zero-point correction=                           0.226920 (Hartree/Particle)
 Thermal correction to Energy=                    0.244852
 Thermal correction to Enthalpy=                  0.245797
 Thermal correction to Gibbs Free Energy=         0.176872
 Sum of electronic and zero-point Energies=          -1370.567517
 Sum of electronic and thermal Energies=             -1370.549585
 Sum of electronic and thermal Enthalpies=           -1370.548641
 Sum of electronic and thermal Free Energies=        -1370.617565

                     E (Thermal)             CV                S
                      KCal/Mol        Cal/Mol-Kelvin    Cal/Mol-Kelvin
 Total                  153.647             64.387            145.063
 Electronic               0.000              0.000              0.000
 Translational            0.889              2.981             42.788
 Rotational               0.889              2.981             34.295
 Vibrational            151.870             58.425             67.980
 Vibration     1          0.593              1.987              8.403
 Vibration     2          0.593              1.986              6.798
 Vibration     3          0.595              1.977              4.776
 Vibration     4          0.596              1.977              4.719
 Vibration     5          0.597              1.973              4.437
 Vibration     6          0.599              1.966              4.022
 Vibration     7          0.607              1.940              3.240
 Vibration     8          0.610              1.928              3.029
 Vibration     9          0.617              1.907              2.718
 Vibration    10          0.626              1.877              2.413
 Vibration    11          0.633              1.855              2.234
 Vibration    12          0.650              1.801              1.910
 Vibration    13          0.657              1.779              1.802
 Vibration    14          0.663              1.762              1.726
 Vibration    15          0.698              1.659              1.374
 Vibration    16          0.700              1.651              1.351
 Vibration    17          0.718              1.600              1.222
 Vibration    18          0.725              1.580              1.177
 Vibration    19          0.744              1.529              1.070
 Vibration    20          0.749              1.515              1.043
 Vibration    21          0.782              1.427              0.893
 Vibration    22          0.817              1.341              0.769
 Vibration    23          0.822              1.328              0.752
 Vibration    24          0.845              1.274              0.686
 Vibration    25          0.889              1.175              0.579
 Vibration    26          0.898              1.155              0.559
 Vibration    27          0.957              1.034              0.451

 Normal termination of Gaussian 09 at Thu Nov 14 10:35:45 2019.
