 Gaussian 09, Revision E.01,

 ----------------------------------------------------------------------
 # M062X/6-311+G* SCF=Tight INT(grid=ultrafine) OPT IOP(2/17=4) Empiric
 alDispersion=GD3 SCRF=(SMD,Solvent=h2o) maxdisk=2147483648
 ----------------------------------------------------------------------

 -------------------------------
 29.M062X_6-311pGd_opt_water_GD3
 -------------------------------
 Symbolic Z-matrix:
 Charge =  0 Multiplicity = 1

 SCF Done:  E(RM062X) =  -1370.81485347     A.U. after   15 cycles
 Optimization completed.
    -- Stationary point found.
 Normal termination of Gaussian 09 at Thu Nov 14 09:27:58 2019.
 Gaussian 09:  ES64L-G09RevE.01 30-Nov-2015

 ----------------------------------------------------------------------
 # M062X/6-311+G* SCF=Tight INT(grid=ultrafine) SCRF=(SMD,Solvent=h2o)E
 mpiricalDispersion=GD3 Freq=Noraman maxdisk=2147483648 geom=check gues
 s=read IOP(2/17=4)
 ----------------------------------------------------------------------

 -------------------------------
 29.M062X_6-311pGd_opt_water_GD3
 -------------------------------
 Structure from the checkpoint file:  "29.M062X_6-311pGd_opt_water_GD3.chk"
 Charge =  0 Multiplicity = 1

                         Standard orientation:
 ---------------------------------------------------------------------
 Center     Atomic      Atomic             Coordinates (Angstroms)
 Number     Number       Type             X           Y           Z
 ---------------------------------------------------------------------
      1          6           0       -0.058821   -1.049724   -0.182801
      2          7           0       -1.445682   -1.125155   -0.345478
      3          6           0       -2.362316   -0.155264    0.018760
      4          8           0       -2.031302    0.928739    0.505993
      5          7           0       -3.648625   -0.491109   -0.199458
      6          6           0       -4.737784    0.410487    0.154634
      7          6           0       -6.078108   -0.237317   -0.150380
      8          6           0       -7.231474    0.689337    0.213758
      9          6           0        0.642284    0.158070   -0.208546
     10          6           0        2.025821    0.163353   -0.071269
     11          6           0        2.723401   -1.034716    0.074687
     12          6           0        2.033569   -2.238201    0.078503
     13          6           0        0.653687   -2.244064   -0.045752
     14          1           0       -1.811895   -2.050983   -0.531896
     15          1           0       -3.873284   -1.374629   -0.637062
     16          1           0       -4.635416    1.345910   -0.403393
     17          1           0       -4.671633    0.656004    1.218234
     18          1           0       -6.159783   -1.175662    0.406883
     19          1           0       -6.122479   -0.491347   -1.214103
     20          1           0       -7.213731    0.938223    1.277937
     21          1           0       -8.193956    0.222974   -0.004296
     22          1           0       -7.177205    1.624255   -0.349861
     23          1           0        0.114605    1.089165   -0.345629
     24          6           0        2.752225    1.479871   -0.097793
     25         17           0        4.458437   -1.066528    0.256557
     26          1           0        2.573189   -3.170763    0.187916
     27          1           0        0.119809   -3.188232   -0.034251
     28          9           0        3.427930    1.709684    1.041478
     29          9           0        3.649926    1.545345   -1.096241
     30          9           0        1.921477    2.515971   -0.263921
 ---------------------------------------------------------------------

 SCF Done:  E(RM062X) =  -1370.81485347     A.U. after    2 cycles

 The electronic state is 1-A.
 Alpha  occ. eigenvalues -- -102.68853 -25.28821 -25.28445 -25.28438 -19.60026
 Alpha  occ. eigenvalues --  -14.78766 -14.77067 -10.81428 -10.68527 -10.62320
 Alpha  occ. eigenvalues --  -10.61079 -10.59042 -10.56700 -10.56682 -10.56651
 Alpha  occ. eigenvalues --  -10.56287 -10.53052 -10.51749  -9.83131  -7.55646
 Alpha  occ. eigenvalues --   -7.54966  -7.54956  -1.48060  -1.38660  -1.38313
 Alpha  occ. eigenvalues --   -1.18789  -1.06757  -1.03654  -1.01362  -0.94961
 Alpha  occ. eigenvalues --   -0.90431  -0.88208  -0.84637  -0.81860  -0.77811
 Alpha  occ. eigenvalues --   -0.74610  -0.72541  -0.70386  -0.70225  -0.68691
 Alpha  occ. eigenvalues --   -0.68394  -0.66251  -0.63656  -0.59780  -0.58623
 Alpha  occ. eigenvalues --   -0.58559  -0.57355  -0.56352  -0.55764  -0.54360
 Alpha  occ. eigenvalues --   -0.54007  -0.53743  -0.52363  -0.52267  -0.51699
 Alpha  occ. eigenvalues --   -0.51178  -0.49307  -0.48611  -0.46785  -0.45984
 Alpha  occ. eigenvalues --   -0.45895  -0.44285  -0.42698  -0.42096  -0.39986
 Alpha  occ. eigenvalues --   -0.39284  -0.39002  -0.37442  -0.36634  -0.33637
 Alpha  occ. eigenvalues --   -0.32940  -0.28037
 Alpha virt. eigenvalues --   -0.01209   0.00002   0.01162   0.01944   0.02694
 Alpha virt. eigenvalues --    0.03073   0.03605   0.03857   0.04302   0.05140
 Alpha virt. eigenvalues --    0.05324   0.05650   0.06329   0.06677   0.07131

 Mulliken charges:
               1
     1  C   -0.848072
     2  N   -0.317821
     3  C    0.083529
     4  O   -0.528285
     5  N   -0.408333
     6  C   -0.506690
     7  C   -0.161582
     8  C   -1.043231
     9  C   -0.068546
    10  C   -1.098956
    11  C    0.878181
    12  C   -0.418169
    13  C   -0.044926
    14  H    0.425822
    15  H    0.451681
    16  H    0.277419
    17  H    0.277470
    18  H    0.268610
    19  H    0.267070
    20  H    0.269933
    21  H    0.280162
    22  H    0.269258
    23  H    0.328459
    24  C    0.594729
    25  Cl   0.401988
    26  H    0.322447
    27  H    0.305106
    28  F   -0.058714
    29  F   -0.056708
    30  F   -0.141831
 Sum of Mulliken charges =  -0.00000

 Dipole moment (field-independent basis, Debye):
    X=             -8.2051    Y=             -8.7244    Z=             -2.3729  Tot=             12.2094
 Quadrupole moment (field-independent basis, Debye-Ang):
   XX=            -99.5890   YY=           -101.8059   ZZ=           -115.7627
   XY=              6.4826   XZ=              5.7247   YZ=              0.2086

  Exact polarizability: 294.332  -6.957 220.907   9.138   3.781 148.434
 Approx polarizability: 236.242  -1.738 196.073   8.517   3.137 136.057

                      1                      2                      3
                      A                      A                      A
 Frequencies --     20.3728                28.0746                40.3018
 Red. masses --      5.6480                 2.2798                 4.2639
 Frc consts  --      0.0014                 0.0011                 0.0041
 IR Inten    --      0.3614                 1.1213                16.7096

                      4                      5                      6
                      A                      A                      A
 Frequencies --     57.7606                59.3995                68.9983
 Red. masses --      8.5272                 5.7864                 4.4446
 Frc consts  --      0.0168                 0.0120                 0.0125
 IR Inten    --     10.8748                 6.4261                15.3456

                      7                      8                      9
                      A                      A                      A
 Frequencies --    109.6658               123.9416               142.1702
 Red. masses --      5.8980                 5.7018                 2.8068
 Frc consts  --      0.0418                 0.0516                 0.0334
 IR Inten    --      1.1866                 2.6783                12.6517

                     10                     11                     12
                      A                      A                      A
 Frequencies --    152.3259               181.4194               229.8301
 Red. masses --      8.2830                12.8663                 6.8673
 Frc consts  --      0.1132                 0.2495                 0.2137
 IR Inten    --      3.1258                 3.8207                 0.3811

                     13                     14                     15
                      A                      A                      A
 Frequencies --    239.4300               255.9195               307.8217
 Red. masses --      1.1344                 5.7737                13.8815
 Frc consts  --      0.0383                 0.2228                 0.7750
 IR Inten    --      0.4138                11.5137                 4.0491

                     16                     17                     18
                      A                      A                      A
 Frequencies --    314.5175               345.7511               351.9486
 Red. masses --      6.3282                 4.9723                 5.9402
 Frc consts  --      0.3688                 0.3502                 0.4335
 IR Inten    --      1.4543                22.2668                 0.5194

                     19                     20                     21
                      A                      A                      A
 Frequencies --    373.3937               383.0647               417.3808
 Red. masses --      1.1836                 5.5826                 5.3116
 Frc consts  --      0.0972                 0.4826                 0.5452
 IR Inten    --     95.5462                12.7693                29.1056

                     22                     23                     24
                      A                      A                      A
 Frequencies --    460.2761               465.2977               515.0552
 Red. masses --      5.6102                 4.1781                 1.2835
 Frc consts  --      0.7003                 0.5330                 0.2006
 IR Inten    --      5.5115                 5.9728               239.8670

                     25                     26                     27
                      A                      A                      A
 Frequencies --    528.8652               541.1625               598.5927
 Red. masses --      4.5008                 7.3913                 8.7612
 Frc consts  --      0.7417                 1.2753                 1.8496
 IR Inten    --     42.3980                11.8568                 3.9558

                     28                     29                     30
                      A                      A                      A
 Frequencies --    647.6729               673.6052               705.3001
 Red. masses --      5.0732                 7.8141                 7.2685
 Frc consts  --      1.2538                 2.0890                 2.1303
 IR Inten    --      4.0220                36.4416                13.3038

                     31                     32                     33
                      A                      A                      A
 Frequencies --    738.8430               758.2308               772.1973
 Red. masses --      4.4671                 1.1648                 9.4863
 Frc consts  --      1.4368                 0.3946                 3.3328
 IR Inten    --      3.7522                18.0053                 5.9501

                     34                     35                     36
                      A                      A                      A
 Frequencies --    777.1496               798.3575               852.0903
 Red. masses --      5.2042                 5.9121                 1.4553
 Frc consts  --      1.8519                 2.2202                 0.6226
 IR Inten    --     21.9693                35.9529                59.1844

                     37                     38                     39
                      A                      A                      A
 Frequencies --    908.4498               915.1401               928.7596
 Red. masses --      1.1544                 1.5547                 1.8122
 Frc consts  --      0.5613                 0.7671                 0.9210
 IR Inten    --      2.5860                54.3305                 1.4081

                     40                     41                     42
                      A                      A                      A
 Frequencies --    953.1920               989.7620              1047.8179
 Red. masses --      4.6713                 1.3442                 5.7777
 Frc consts  --      2.5006                 0.7758                 3.7375
 IR Inten    --     35.7264                 0.6844                35.5648

                     43                     44                     45
                      A                      A                      A
 Frequencies --   1048.9313              1081.0043              1147.4071
 Red. masses --      4.1961                 2.5675                 3.7963
 Frc consts  --      2.7201                 1.7677                 2.9447
 IR Inten    --     17.9026                 8.2730               132.7003

                     46                     47                     48
                      A                      A                      A
 Frequencies --   1148.0352              1149.1450              1169.3639
 Red. masses --     11.4206                 2.1115                 2.7799
 Frc consts  --      8.8685                 1.6429                 2.2396
 IR Inten    --    445.2322                20.3551               187.4362

                     49                     50                     51
                      A                      A                      A
 Frequencies --   1172.9649              1183.1783              1201.8501
 Red. masses --      3.7358                 1.6232                 1.9215
 Frc consts  --      3.0283                 1.3388                 1.6353
 IR Inten    --     19.7016                 0.2090               250.3518

                     52                     53                     54
                      A                      A                      A
 Frequencies --   1262.9250              1288.3347              1288.6990
 Red. masses --      2.1254                 1.9109                 1.1996
 Frc consts  --      1.9973                 1.8687                 1.1738
 IR Inten    --    426.0455                63.3610                 6.7142

                     55                     56                     57
                      A                      A                      A
 Frequencies --   1300.6784              1313.4808              1335.3885
 Red. masses --      2.9985                 2.0733                 1.0697
 Frc consts  --      2.9888                 2.1074                 1.1239
 IR Inten    --    337.5358                79.4514                 1.2122

                     58                     59                     60
                      A                      A                      A
 Frequencies --   1349.6937              1372.9902              1417.8451
 Red. masses --      1.4846                 3.9802                 1.2638
 Frc consts  --      1.5935                 4.4207                 1.4969
 IR Inten    --     82.1570               280.7712                 1.1726

                     61                     62                     63
                      A                      A                      A
 Frequencies --   1426.2137              1468.2391              1486.1467
 Red. masses --      1.6302                 5.0761                 1.0593
 Frc consts  --      1.9537                 6.4473                 1.3784
 IR Inten    --      5.5044               475.4943                 6.0560

                     64                     65                     66
                      A                      A                      A
 Frequencies --   1500.2351              1508.7106              1529.9965
 Red. masses --      1.0380                 1.0806                 1.0917
 Frc consts  --      1.3764                 1.4492                 1.5056
 IR Inten    --     13.8947                 8.3271                27.6043

                     67                     68                     69
                      A                      A                      A
 Frequencies --   1531.9213              1573.2987              1581.7505
 Red. masses --      2.5198                 2.0290                 2.4054
 Frc consts  --      3.4840                 2.9590                 3.5457
 IR Inten    --    369.1189               333.1007              1161.8602

                     70                     71                     72
                      A                      A                      A
 Frequencies --   1657.5674              1683.5673              1700.9800
 Red. masses --      7.9181                 4.8202                 3.7268
 Frc consts  --     12.8178                 8.0497                 6.3532
 IR Inten    --    121.1918                31.1409               667.6013

                     73                     74                     75
                      A                      A                      A
 Frequencies --   3067.8072              3068.5372              3076.2868
 Red. masses --      1.0602                 1.0373                 1.0584
 Frc consts  --      5.8790                 5.7545                 5.9015
 IR Inten    --      9.2239                25.3889                98.9603

                     76                     77                     78
                      A                      A                      A
 Frequencies --   3098.7099              3118.9735              3137.7113
 Red. masses --      1.1036                 1.1070                 1.1043
 Frc consts  --      6.2432                 6.3451                 6.4058
 IR Inten    --      0.3786                36.9770                99.8959

                     79                     80                     81
                      A                      A                      A
 Frequencies --   3145.9650              3219.9759              3242.5165
 Red. masses --      1.1024                 1.0917                 1.0952
 Frc consts  --      6.4284                 6.6688                 6.7843
 IR Inten    --     46.2626                 3.0223                 0.1782

                     82                     83                     84
                      A                      A                      A
 Frequencies --   3286.2589              3615.6831              3634.4105
 Red. masses --      1.0918                 1.0778                 1.0793
 Frc consts  --      6.9469                 8.3017                 8.3997
 IR Inten    --     13.0214                70.2235               202.7244

 - Thermochemistry -
 -------------------
 Temperature   298.150 Kelvin.  Pressure   1.00000 Atm.
 Atom     1 has atomic number  6 and mass  12.00000

 Molecular mass:   280.05903 amu.
 Principal axes and moments of inertia in atomic units:
                           1         2         3
     Eigenvalues --  2050.90604********************
           X            0.99996  -0.00932  -0.00057
           Y            0.00932   0.99994   0.00657
           Z            0.00051  -0.00657   0.99998
 This molecule is an asymmetric top.
 Rotational symmetry number  1.
 Warning -- assumption of classical behavior for rotation
           may cause significant error
 Rotational temperatures (Kelvin)      0.04223     0.00677     0.00601
 Rotational constants (GHZ):           0.87997     0.14096     0.12521
 Zero-point vibrational energy     594380.6 (Joules/Mol)
                                  142.06038 (Kcal/Mol)
 Warning -- explicit consideration of  27 degrees of freedom as
           vibrations may cause significant error
 Vibrational temperatures:     29.31    40.39    57.99    83.10    85.46
          (Kelvin)             99.27   157.78   178.32   204.55   219.16
                              261.02   330.67   344.49   368.21   442.89
                              452.52   497.46   506.37   537.23   551.14
                              600.52   662.23   669.46   741.05   760.92
                              778.61   861.24   931.86   969.17  1014.77
                             1063.03  1090.92  1111.02  1118.14  1148.66
                             1225.97  1307.06  1316.68  1336.28  1371.43
                             1424.05  1507.57  1509.18  1555.32  1650.86
                             1651.76  1653.36  1682.45  1687.63  1702.33
                             1729.19  1817.07  1853.62  1854.15  1871.38
                             1889.80  1921.32  1941.91  1975.42  2039.96
                             2052.00  2112.47  2138.23  2158.50  2170.70
                             2201.32  2204.09  2263.62  2275.78  2384.87
                             2422.27  2447.33  4413.88  4414.94  4426.09
                             4458.35  4487.50  4514.46  4526.34  4632.82
                             4665.25  4728.19  5202.16  5229.10

 Zero-point correction=                           0.226388 (Hartree/Particle)
 Thermal correction to Energy=                    0.244319
 Thermal correction to Enthalpy=                  0.245263
 Thermal correction to Gibbs Free Energy=         0.177252
 Sum of electronic and zero-point Energies=          -1370.588466
 Sum of electronic and thermal Energies=             -1370.570535
 Sum of electronic and thermal Enthalpies=           -1370.569591
 Sum of electronic and thermal Free Energies=        -1370.637601

                     E (Thermal)             CV                S
                      KCal/Mol        Cal/Mol-Kelvin    Cal/Mol-Kelvin
 Total                  153.312             64.416            143.140
 Electronic               0.000              0.000              0.000
 Translational            0.889              2.981             42.788
 Rotational               0.889              2.981             34.292
 Vibrational            151.535             58.455             66.061
 Vibration     1          0.593              1.986              6.598
 Vibration     2          0.593              1.984              5.961
 Vibration     3          0.594              1.981              5.244
 Vibration     4          0.596              1.974              4.532
 Vibration     5          0.597              1.974              4.477
 Vibration     6          0.598              1.969              4.182
 Vibration     7          0.606              1.941              3.275
 Vibration     8          0.610              1.929              3.038
 Vibration     9          0.616              1.911              2.774
 Vibration    10          0.619              1.900              2.643
 Vibration    11          0.630              1.865              2.314
 Vibration    12          0.652              1.795              1.880
 Vibration    13          0.657              1.780              1.807
 Vibration    14          0.666              1.753              1.689
 Vibration    15          0.698              1.659              1.374
 Vibration    16          0.702              1.646              1.338
 Vibration    17          0.724              1.584              1.185
 Vibration    18          0.728              1.571              1.157
 Vibration    19          0.745              1.527              1.066
 Vibration    20          0.752              1.506              1.027
 Vibration    21          0.780              1.432              0.901
 Vibration    22          0.818              1.338              0.765
 Vibration    23          0.823              1.327              0.751
 Vibration    24          0.870              1.217              0.622
 Vibration    25          0.884              1.186              0.590
 Vibration    26          0.896              1.159              0.563
 Vibration    27          0.957              1.035              0.452

 Optimization completed.
    -- Stationary point found.
 Normal termination of Gaussian 09 at Thu Nov 14 10:38:31 2019.
