 Gaussian 09, Revision E.01,

 ----------------------------------------------------------------------
 # M062X/6-311+G* SCF=Tight INT(grid=ultrafine) OPT IOP(2/17=4) Empiric
 alDispersion=GD3 SCRF=(SMD,Solvent=n-Pentadecane) maxdisk=2147483648
 ----------------------------------------------------------------------

 ----------------------------------------
 29_c2.M062X_6-311pGd_opt_Pentadecane_GD3
 ----------------------------------------
 Symbolic Z-matrix:
 Charge =  0 Multiplicity = 1

 SCF Done:  E(RM062X) =  -1370.81148663     A.U. after   15 cycles
 Optimization completed.
    -- Stationary point found.
 Normal termination of Gaussian 09 at Thu Nov 14 09:25:23 2019.
 Gaussian 09:  ES64L-G09RevE.01 30-Nov-2015

 ----------------------------------------------------------------------
 # M062X/6-311+G* SCF=Tight INT(grid=ultrafine) SCRF=(SMD,Solvent=n-Pen
 tadecane)EmpiricalDispersion=GD3 Freq=Noraman maxdisk=2147483648 geom=
 check guess=read IOP(2/17=4)
 ----------------------------------------------------------------------

 ----------------------------------------
 29_c2.M062X_6-311pGd_opt_Pentadecane_GD3
 ----------------------------------------
 Structure from the checkpoint file:  "29_c2.M062X_6-311pGd_opt_Pentadecane_GD3.chk"
 Charge =  0 Multiplicity = 1

                         Standard orientation:
 ---------------------------------------------------------------------
 Center     Atomic      Atomic             Coordinates (Angstroms)
 Number     Number       Type             X           Y           Z
 ---------------------------------------------------------------------
      1          6           0        0.128175   -0.199600   -0.019646
      2          7           0        1.424199    0.322651   -0.039589
      3          6           0        2.621102   -0.380207    0.005615
      4          8           0        2.687302   -1.591301    0.094935
      5          7           0        3.724250    0.422951   -0.036151
      6          6           0        5.054115   -0.166184   -0.114654
      7          6           0        6.118967    0.899218    0.100500
      8          6           0        7.522214    0.308273    0.026711
      9          6           0       -0.926166    0.719893   -0.009030
     10          6           0       -2.247460    0.299535   -0.001318
     11          6           0       -2.536113   -1.065079   -0.003375
     12          6           0       -1.496433   -1.981531   -0.013145
     13          6           0       -0.171630   -1.565350   -0.020874
     14          1           0        1.483380    1.330477   -0.005035
     15          1           0        3.625224    1.377878   -0.349834
     16          1           0        5.198780   -0.661273   -1.082019
     17          1           0        5.126096   -0.937452    0.654128
     18          1           0        5.958480    1.372494    1.074005
     19          1           0        6.010286    1.683714   -0.657566
     20          1           0        7.665486   -0.461215    0.789512
     21          1           0        8.282753    1.075593    0.182121
     22          1           0        7.707824   -0.150944   -0.947634
     23          1           0       -0.709590    1.781997   -0.008156
     24          6           0       -3.345408    1.329934    0.008278
     25         17           0       -4.175692   -1.651382    0.006032
     26          1           0       -1.723888   -3.040684   -0.013494
     27          1           0        0.622853   -2.295158   -0.024702
     28          9           0       -2.855057    2.579367    0.008638
     29          9           0       -4.141339    1.230740   -1.065510
     30          9           0       -4.128788    1.224989    1.090477
 ---------------------------------------------------------------------

 SCF Done:  E(RM062X) =  -1370.81148663     A.U. after    2 cycles

 The electronic state is 1-A.
 Alpha  occ. eigenvalues -- -102.68411 -25.28541 -25.27988 -25.27986 -19.59772
 Alpha  occ. eigenvalues --  -14.79784 -14.77629 -10.81158 -10.68572 -10.62152
 Alpha  occ. eigenvalues --  -10.61629 -10.59174 -10.57435 -10.57425 -10.56774
 Alpha  occ. eigenvalues --  -10.56007 -10.54321 -10.52903  -9.82685  -7.55205
 Alpha  occ. eigenvalues --   -7.54514  -7.54507  -1.47716  -1.38310  -1.37962
 Alpha  occ. eigenvalues --   -1.19145  -1.07468  -1.04109  -1.01355  -0.94951
 Alpha  occ. eigenvalues --   -0.90408  -0.89028  -0.85085  -0.81556  -0.78438
 Alpha  occ. eigenvalues --   -0.74668  -0.72601  -0.70532  -0.69980  -0.69549
 Alpha  occ. eigenvalues --   -0.69416  -0.65552  -0.64735  -0.60091  -0.58218
 Alpha  occ. eigenvalues --   -0.58147  -0.57592  -0.56622  -0.55673  -0.54575
 Alpha  occ. eigenvalues --   -0.54004  -0.53383  -0.53196  -0.51826  -0.51701
 Alpha  occ. eigenvalues --   -0.51358  -0.49199  -0.49014  -0.47727  -0.46441
 Alpha  occ. eigenvalues --   -0.46021  -0.44294  -0.43258  -0.43004  -0.41098
 Alpha  occ. eigenvalues --   -0.40399  -0.38645  -0.37534  -0.35877  -0.33956
 Alpha  occ. eigenvalues --   -0.33038  -0.28081
 Alpha virt. eigenvalues --   -0.01148  -0.00253  -0.00044   0.01895   0.02070
 Alpha virt. eigenvalues --    0.03033   0.03127   0.03367   0.03931   0.04922
 Alpha virt. eigenvalues --    0.05016   0.05394   0.06465   0.06624   0.06646

 Mulliken charges:
               1
     1  C   -0.209294
     2  N   -0.404715
     3  C    0.139896
     4  O   -0.371500
     5  N   -0.310901
     6  C   -0.536132
     7  C   -0.117829
     8  C   -1.038641
     9  C   -0.682320
    10  C   -1.190189
    11  C    0.674004
    12  C   -0.330693
    13  C    0.056407
    14  H    0.378299
    15  H    0.354777
    16  H    0.268442
    17  H    0.270984
    18  H    0.265869
    19  H    0.242443
    20  H    0.266097
    21  H    0.273399
    22  H    0.264313
    23  H    0.282836
    24  C    0.614435
    25  Cl   0.452154
    26  H    0.293875
    27  H    0.317040
    28  F   -0.147156
    29  F   -0.038261
    30  F   -0.037638
 Sum of Mulliken charges =  -0.00000

 Dipole moment (field-independent basis, Debye):
    X=              6.2384    Y=              2.9722    Z=             -0.6680  Tot=              6.9424
 Quadrupole moment (field-independent basis, Debye-Ang):
   XX=           -111.2082   YY=           -109.8726   ZZ=           -115.3874
   XY=             15.9447   XZ=             -2.2716   YZ=             -0.5600

  Exact polarizability: 259.726  13.945 174.683  -0.993  -0.237 110.538
 Approx polarizability: 232.265  10.644 204.020  -0.815  -0.905 132.069

                      1                      2                      3
                      A                      A                      A
 Frequencies --     18.7432                28.0452                46.6727
 Red. masses --      5.2040                 3.6731                 8.9057
 Frc consts  --      0.0011                 0.0017                 0.0114
 IR Inten    --      2.8548                 8.8405                 1.1928

                      4                      5                      6
                      A                      A                      A
 Frequencies --     57.0055                58.4555                74.5938
 Red. masses --      3.4356                 5.1732                 2.6707
 Frc consts  --      0.0066                 0.0104                 0.0088
 IR Inten    --      5.4750                 1.1379                 2.1761

                      7                      8                      9
                      A                      A                      A
 Frequencies --    111.8150               133.8600               142.0846
 Red. masses --      5.1185                 6.1216                 8.2052
 Frc consts  --      0.0377                 0.0646                 0.0976
 IR Inten    --      0.0590                 8.5982                 0.2392

                     10                     11                     12
                      A                      A                      A
 Frequencies --    164.8204               188.1921               213.7297
 Red. masses --      8.6664                 3.1957                 7.2794
 Frc consts  --      0.1387                 0.0667                 0.1959
 IR Inten    --      5.9896                 1.6257                 0.4110

                     13                     14                     15
                      A                      A                      A
 Frequencies --    247.6523               251.8963               299.4458
 Red. masses --      1.1416                 4.1460                 1.8176
 Frc consts  --      0.0413                 0.1550                 0.0960
 IR Inten    --      0.1227                10.0885                32.8012

                     16                     17                     18
                      A                      A                      A
 Frequencies --    308.6974               315.8611               343.9306
 Red. masses --     14.8725                 2.6325                 3.9360
 Frc consts  --      0.8350                 0.1547                 0.2743
 IR Inten    --      1.1935                36.1170                 7.6460

                     19                     20                     21
                      A                      A                      A
 Frequencies --    354.3367               364.8037               430.6102
 Red. masses --      5.8542                 7.9297                 5.4865
 Frc consts  --      0.4331                 0.6218                 0.5994
 IR Inten    --      0.6713                 1.3885                21.7604

                     22                     23                     24
                      A                      A                      A
 Frequencies --    464.8494               468.9137               487.6136
 Red. masses --      3.7960                 6.1728                 1.2811
 Frc consts  --      0.4833                 0.7997                 0.1795
 IR Inten    --      0.2454                 2.3496               165.2690

                     25                     26                     27
                      A                      A                      A
 Frequencies --    533.1415               541.8294               601.4788
 Red. masses --      5.6672                 7.4412                 8.9803
 Frc consts  --      0.9491                 1.2871                 1.9142
 IR Inten    --     34.9927                11.7165                 5.3970

                     28                     29                     30
                      A                      A                      A
 Frequencies --    649.4059               672.9060               708.9767
 Red. masses --      4.9985                 8.5148                 6.8527
 Frc consts  --      1.2420                 2.2716                 2.0294
 IR Inten    --      1.9246                19.4641                 6.0554

                     31                     32                     33
                      A                      A                      A
 Frequencies --    736.2981               758.1697               766.1246
 Red. masses --      4.2717                 1.2439                 7.5035
 Frc consts  --      1.3645                 0.4213                 2.5948
 IR Inten    --      5.0717                 9.1254                 7.2329

                     34                     35                     36
                      A                      A                      A
 Frequencies --    778.5372               821.7352               863.1339
 Red. masses --      4.8652                 6.7433                 1.3745
 Frc consts  --      1.7374                 2.6828                 0.6033
 IR Inten    --      5.5878                 5.7857                39.6976

                     37                     38                     39
                      A                      A                      A
 Frequencies --    900.8030               906.0553               914.7622
 Red. masses --      1.5751                 1.1828                 3.0632
 Frc consts  --      0.7530                 0.5721                 1.5102
 IR Inten    --     36.0280                 3.2649                 9.3878

                     40                     41                     42
                      A                      A                      A
 Frequencies --    944.8484              1000.8629              1049.0084
 Red. masses --      2.2497                 1.3189                 5.0847
 Frc consts  --      1.1833                 0.7784                 3.2967
 IR Inten    --      8.5544                 0.0363                42.8381

                     43                     44                     45
                      A                      A                      A
 Frequencies --   1052.8680              1081.4021              1146.8635
 Red. masses --      4.7215                 2.6276                 3.5505
 Frc consts  --      3.0837                 1.8105                 2.7515
 IR Inten    --     18.8076                23.7924                65.4119

                     46                     47                     48
                      A                      A                      A
 Frequencies --   1160.8475              1169.0962              1175.4459
 Red. masses --      2.7959                 2.8714                 1.5383
 Frc consts  --      2.2199                 2.3123                 1.2522
 IR Inten    --     45.1523                13.6284                45.1046

                     49                     50                     51
                      A                      A                      A
 Frequencies --   1182.3949              1192.5009              1216.1441
 Red. masses --      1.7534                12.9336                 3.5337
 Frc consts  --      1.4443                10.8365                 3.0793
 IR Inten    --      0.4284               326.9379               330.3732

                     52                     53                     54
                      A                      A                      A
 Frequencies --   1242.6085              1279.3771              1289.3518
 Red. masses --      1.7829                 2.8794                 1.3435
 Frc consts  --      1.6220                 2.7768                 1.3159
 IR Inten    --    350.2463               108.9359               134.4871

                     55                     56                     57
                      A                      A                      A
 Frequencies --   1312.8518              1332.0114              1338.5753
 Red. masses --      1.5327                 1.2792                 2.6559
 Frc consts  --      1.5565                 1.3372                 2.8039
 IR Inten    --     14.1977                21.6000                58.9666

                     58                     59                     60
                      A                      A                      A
 Frequencies --   1350.1928              1370.8598              1423.7566
 Red. masses --      1.4203                 3.3063                 1.5116
 Frc consts  --      1.5255                 3.6608                 1.8053
 IR Inten    --     30.5752               424.7311                 4.2739

                     61                     62                     63
                      A                      A                      A
 Frequencies --   1432.0895              1457.7278              1502.4473
 Red. masses --      1.3177                 3.3234                 1.0626
 Frc consts  --      1.5922                 4.1609                 1.4133
 IR Inten    --      2.7893                24.8041                 9.4062

                     64                     65                     66
                      A                      A                      A
 Frequencies --   1517.7906              1519.7023              1533.7595
 Red. masses --      1.0468                 1.0617                 1.0964
 Frc consts  --      1.4208                 1.4447                 1.5196
 IR Inten    --     14.5921                 5.0968                19.5225

                     67                     68                     69
                      A                      A                      A
 Frequencies --   1544.6804              1558.9147              1597.4596
 Red. masses --      2.9350                 1.8778                 2.2514
 Frc consts  --      4.1260                 2.6887                 3.3851
 IR Inten    --    523.9860               394.0635               780.0932

                     70                     71                     72
                      A                      A                      A
 Frequencies --   1664.0929              1689.1618              1797.0205
 Red. masses --      4.3233                 6.1874                 7.3244
 Frc consts  --      7.0538                10.4016                13.9356
 IR Inten    --     29.9483                25.9514               375.4615

                     73                     74                     75
                      A                      A                      A
 Frequencies --   3054.1516              3057.6185              3070.4077
 Red. masses --      1.0635                 1.0713                 1.0372
 Frc consts  --      5.8445                 5.9012                 5.7610
 IR Inten    --     16.1634                43.1322                34.9112

                     76                     77                     78
                      A                      A                      A
 Frequencies --   3098.8000              3131.1625              3140.6937
 Red. masses --      1.0962                 1.0981                 1.1027
 Frc consts  --      6.2022                 6.3432                 6.4084
 IR Inten    --     15.3380                 1.6013                60.0780

                     79                     80                     81
                      A                      A                      A
 Frequencies --   3146.7195              3234.3887              3237.5068
 Red. masses --      1.1022                 1.0903                 1.0924
 Frc consts  --      6.4300                 6.7200                 6.7460
 IR Inten    --     31.7051                 3.7915                 0.1120

                     82                     83                     84
                      A                      A                      A
 Frequencies --   3292.2466              3639.8012              3645.8277
 Red. masses --      1.0927                 1.0776                 1.0768
 Frc consts  --      6.9778                 8.4117                 8.4330
 IR Inten    --     11.3881                28.7146                63.2987

 - Thermochemistry -
 -------------------
 Temperature   298.150 Kelvin.  Pressure   1.00000 Atm.
 Atom     1 has atomic number  6 and mass  12.00000

 Molecular mass:   280.05903 amu.
 Principal axes and moments of inertia in atomic units:
                           1         2         3
     Eigenvalues --  1906.08883********************
           X            0.99995   0.00991  -0.00020
           Y           -0.00991   0.99995  -0.00001
           Z            0.00020   0.00001   1.00000
 This molecule is an asymmetric top.
 Rotational symmetry number  1.
 Warning -- assumption of classical behavior for rotation
           may cause significant error
 Rotational temperatures (Kelvin)      0.04544     0.00614     0.00553
 Rotational constants (GHZ):           0.94683     0.12800     0.11531
 Zero-point vibrational energy     595776.3 (Joules/Mol)
                                  142.39396 (Kcal/Mol)
 Warning -- explicit consideration of  27 degrees of freedom as
           vibrations may cause significant error
 Vibrational temperatures:     26.97    40.35    67.15    82.02    84.10
          (Kelvin)            107.32   160.88   192.59   204.43   237.14
                              270.77   307.51   356.32   362.42   430.84
                              444.15   454.45   494.84   509.81   524.87
                              619.55   668.81   674.66   701.57   767.07
                              779.57   865.39   934.35   968.16  1020.06
                             1059.37  1090.84  1102.28  1120.14  1182.29
                             1241.86  1296.05  1303.61  1316.14  1359.42
                             1440.02  1509.29  1514.84  1555.89  1650.08
                             1670.20  1682.07  1691.20  1701.20  1715.74
                             1749.76  1787.83  1840.74  1855.09  1888.90
                             1916.46  1925.91  1942.62  1972.36  2048.47
                             2060.45  2097.34  2161.68  2183.76  2186.51
                             2206.74  2222.45  2242.93  2298.39  2394.26
                             2430.32  2585.51  4394.24  4399.23  4417.63
                             4458.48  4505.04  4518.75  4527.42  4653.56
                             4658.04  4736.80  5236.86  5245.53

 Zero-point correction=                           0.226919 (Hartree/Particle)
 Thermal correction to Energy=                    0.244883
 Thermal correction to Enthalpy=                  0.245827
 Thermal correction to Gibbs Free Energy=         0.177838
 Sum of electronic and zero-point Energies=          -1370.584567
 Sum of electronic and thermal Energies=             -1370.566604
 Sum of electronic and thermal Enthalpies=           -1370.565660
 Sum of electronic and thermal Free Energies=        -1370.633649

                     E (Thermal)             CV                S
                      KCal/Mol        Cal/Mol-Kelvin    Cal/Mol-Kelvin
 Total                  153.666             64.478            143.095
 Electronic               0.000              0.000              0.000
 Translational            0.889              2.981             42.788
 Rotational               0.889              2.981             34.397
 Vibrational            151.889             58.516             65.910
 Vibration     1          0.593              1.986              6.763
 Vibration     2          0.593              1.984              5.963
 Vibration     3          0.595              1.979              4.954
 Vibration     4          0.596              1.975              4.558
 Vibration     5          0.596              1.974              4.509
 Vibration     6          0.599              1.966              4.028
 Vibration     7          0.607              1.940              3.237
 Vibration     8          0.613              1.920              2.890
 Vibration     9          0.616              1.911              2.776
 Vibration    10          0.623              1.886              2.494
 Vibration    11          0.633              1.856              2.246
 Vibration    12          0.644              1.820              2.012
 Vibration    13          0.661              1.767              1.747
 Vibration    14          0.664              1.760              1.717
 Vibration    15          0.692              1.675              1.420
 Vibration    16          0.698              1.657              1.369
 Vibration    17          0.703              1.643              1.331
 Vibration    18          0.723              1.588              1.194
 Vibration    19          0.730              1.566              1.147
 Vibration    20          0.738              1.545              1.102
 Vibration    21          0.792              1.404              0.857
 Vibration    22          0.822              1.328              0.752
 Vibration    23          0.826              1.319              0.741
 Vibration    24          0.844              1.278              0.690
 Vibration    25          0.888              1.177              0.580
 Vibration    26          0.897              1.158              0.561
 Vibration    27          0.960              1.029              0.447

 Optimization completed on the basis of negligible forces.
    -- Stationary point found.
 Normal termination of Gaussian 09 at Thu Nov 14 10:33:01 2019.
