 Gaussian 09, Revision E.01,

 ----------------------------------------------------------------------
 # M062X/6-311+G* SCF=Tight INT(grid=ultrafine) OPT IOP(2/17=4) Empiric
 alDispersion=GD3 SCRF=(SMD,Solvent=h2o) maxdisk=2684354560
 ----------------------------------------------------------------------

 ----------------------------------------
 NM3_carboxy.M062X_6-311pGd_opt_water_GD3
 ----------------------------------------
 Symbolic Z-matrix:
 Charge = -1 Multiplicity = 1

 SCF Done:  E(RM062X) =  -1638.74941912     A.U. after   15 cycles
 SCF Done:  E(RM062X) =  -1638.74941918     A.U. after    9 cycles
 SCF Done:  E(RM062X) =  -1638.74941916     A.U. after    9 cycles
 Optimization completed.
    -- Stationary point found.
 Normal termination of Gaussian 09 at Thu Nov 14 22:17:53 2019.
 Gaussian 09:  ES64L-G09RevE.01 30-Nov-2015

 ----------------------------------------------------------------------
 # M062X/6-311+G* SCF=Tight INT(grid=ultrafine) SCRF=(SMD,Solvent=h2o)
 EmpiricalDispersion=GD3 Freq=Noraman maxdisk=2684354560 geom=check gue
 ss=read IOP(2/17=4)
 ----------------------------------------------------------------------

 ----------------------------------------
 NM3_carboxy.M062X_6-311pGd_opt_water_GD3
 ----------------------------------------
 Structure from the checkpoint file:  "NM3_carboxy.M062X_6-311pGd_opt_water_GD3.chk"
 Charge = -1 Multiplicity = 1

                         Standard orientation:
 ---------------------------------------------------------------------
 Center     Atomic      Atomic             Coordinates (Angstroms)
 Number     Number       Type             X           Y           Z
 ---------------------------------------------------------------------
      1          6           0        0.933512    0.106738   -0.085449
      2          7           0       -0.415399   -0.226444   -0.069264
      3          6           0       -0.964192   -1.490325   -0.169856
      4          8           0       -0.285464   -2.518257   -0.296801
      5          7           0       -2.308818   -1.506809   -0.127675
      6          6           0       -3.043380   -2.759522   -0.227061
      7          6           0       -4.539756   -2.498385   -0.160991
      8          6           0       -5.329279   -3.797448   -0.263821
      9          6           0        1.980745   -0.805948    0.080048
     10          6           0        3.292371   -0.343026    0.062579
     11          6           0        3.617736    0.995461   -0.100358
     12          6           0        2.558574    1.881437   -0.254010
     13          6           0        1.241060    1.468421   -0.251874
     14          1           0       -1.070180    0.568553   -0.091292
     15          1           0       -2.835654   -0.640935    0.017512
     16          1           0       -2.744908   -3.430277    0.585029
     17          1           0       -2.792058   -3.260424   -1.167060
     18          1           0       -4.824099   -1.819818   -0.971351
     19          1           0       -4.776765   -1.988154    0.777891
     20          1           0       -5.118713   -4.311529   -1.205333
     21          1           0       -6.403853   -3.610628   -0.218495
     22          1           0       -5.073649   -4.477856    0.552739
     23          1           0        1.777223   -1.855753    0.226099
     24         17           0        2.907055    3.580451   -0.466107
     25          1           0        0.440211    2.188383   -0.377802
     26          6           0        4.383792   -1.347297    0.287731
     27          1           0        4.643172    1.340175   -0.109942
     28          9           0        5.596636   -0.877462   -0.032884
     29          9           0        4.450014   -1.733135    1.577466
     30          9           0        4.197496   -2.469072   -0.428235
     31          8           0       -2.113351    2.055782   -0.143971
     32          8           0       -3.938132    0.859365    0.307309
     33          6           0       -3.342594    1.953345    0.138093
     34          6           0       -4.122511    3.256222    0.274374
     35          6           0       -5.590920    3.094099    0.633200
     36          1           0       -4.009704    3.794632   -0.671670
     37          1           0       -3.602580    3.861413    1.023122
     38          1           0       -6.124194    2.518120   -0.125724
     39          1           0       -6.075754    4.069307    0.715181
     40          1           0       -5.711582    2.579177    1.588424
 ---------------------------------------------------------------------

 SCF Done:  E(RM062X) =  -1638.74941916     A.U. after    2 cycles

 The electronic state is 1-A.
 Alpha  occ. eigenvalues -- -102.68395 -25.28544 -25.28280 -25.28089 -19.59311
 Alpha  occ. eigenvalues --  -19.57922 -19.57619 -14.77311 -14.75499 -10.80838
 Alpha  occ. eigenvalues --  -10.67568 -10.63872 -10.61947 -10.61145 -10.58208
 Alpha  occ. eigenvalues --  -10.56384 -10.56146 -10.56098 -10.55780 -10.52674
 Alpha  occ. eigenvalues --  -10.52457 -10.51541 -10.51347  -9.82667  -7.55174
 Alpha  occ. eigenvalues --   -7.54512  -7.54497  -1.47684  -1.38395  -1.37937
 Alpha  occ. eigenvalues --   -1.17826  -1.16688  -1.06870  -1.05863  -1.02663
 Alpha  occ. eigenvalues --   -1.00342  -0.95531  -0.89312  -0.87266  -0.85740
 Alpha  occ. eigenvalues --   -0.84433  -0.81757  -0.77800  -0.74057  -0.72429
 Alpha  occ. eigenvalues --   -0.72194  -0.70037  -0.69965  -0.68030  -0.66268
 Alpha  occ. eigenvalues --   -0.65744  -0.62528  -0.59554  -0.59441  -0.58533
 Alpha  occ. eigenvalues --   -0.58270  -0.57611  -0.55553  -0.55247  -0.53987
 Alpha  occ. eigenvalues --   -0.53848  -0.53472  -0.52927  -0.52864  -0.52023
 Alpha  occ. eigenvalues --   -0.51971  -0.51484  -0.50704  -0.50221  -0.49054
 Alpha  occ. eigenvalues --   -0.48452  -0.46399  -0.46341  -0.45533  -0.45476
 Alpha  occ. eigenvalues --   -0.44325  -0.43631  -0.42148  -0.41755  -0.41457
 Alpha  occ. eigenvalues --   -0.39629  -0.39525  -0.39020  -0.38836  -0.38148
 Alpha  occ. eigenvalues --   -0.35836  -0.34004  -0.32922  -0.32488  -0.32341
 Alpha  occ. eigenvalues --   -0.31760  -0.27604
 Alpha virt. eigenvalues --   -0.00972   0.00586   0.01169   0.02223   0.02570
 Alpha virt. eigenvalues --    0.03298   0.03352   0.03483   0.04254   0.04523
 Alpha virt. eigenvalues --    0.04919   0.05101   0.05406   0.05674   0.06032

 Mulliken charges:
               1
     1  C   -0.694397
     2  N   -0.413769
     3  C    0.206737
     4  O   -0.532578
     5  N   -0.454662
     6  C   -0.557194
     7  C   -0.086422
     8  C   -1.169981
     9  C   -0.204012
    10  C   -0.290325
    11  C   -0.952654
    12  C    0.944136
    13  C   -0.423550
    14  H    0.479373
    15  H    0.474382
    16  H    0.274273
    17  H    0.271076
    18  H    0.275222
    19  H    0.272120
    20  H    0.268781
    21  H    0.279936
    22  H    0.268884
    23  H    0.334577
    24  Cl   0.375652
    25  H    0.349166
    26  C    0.598997
    27  H    0.334396
    28  F   -0.139265
    29  F   -0.072739
    30  F   -0.098451
    31  O   -0.623898
    32  O   -0.573625
    33  C    0.197851
    34  C   -0.270364
    35  C   -1.031796
    36  H    0.284792
    37  H    0.283624
    38  H    0.269181
    39  H    0.277478
    40  H    0.269049
 Sum of Mulliken charges =  -1.00000

 Dipole moment (field-independent basis, Debye):
    X=              2.8504    Y=              0.6503    Z=              0.1992  Tot=              2.9304
 Quadrupole moment (field-independent basis, Debye-Ang):
   XX=           -183.0069   YY=           -165.9815   ZZ=           -148.2008
   XY=             14.5334   XZ=              1.4037   YZ=             -0.0089

  Exact polarizability: 341.634  27.383 325.557  -3.129  -9.120 197.069
 Approx polarizability: 275.897  15.867 272.639  -2.247  -8.068 177.119

                      1                      2                      3
                      A                      A                      A
 Frequencies --     14.4646                23.1963                26.3147
 Red. masses --      6.9557                 5.0035                13.1901
 Frc consts  --      0.0009                 0.0016                 0.0054
 IR Inten    --      0.2039                 4.6488                 0.3038

                      4                      5                      6
                      A                      A                      A
 Frequencies --     27.7093                36.9353                47.6407
 Red. masses --      4.9156                 3.5486                 4.3126
 Frc consts  --      0.0022                 0.0029                 0.0058
 IR Inten    --      0.1157                 1.6291                 3.7151

                      7                      8                      9
                      A                      A                      A
 Frequencies --     51.4607                58.3710                62.4628
 Red. masses --      2.4523                 4.6675                 3.1088
 Frc consts  --      0.0038                 0.0094                 0.0071
 IR Inten    --      0.9101                 2.9160                 6.2765

                     10                     11                     12
                      A                      A                      A
 Frequencies --     66.1524                74.7111               102.5772
 Red. masses --      5.5641                 5.0635                 4.6129
 Frc consts  --      0.0143                 0.0167                 0.0286
 IR Inten    --      1.1094                13.7619                18.1752

                     13                     14                     15
                      A                      A                      A
 Frequencies --    112.8563               120.2807               149.4556
 Red. masses --      8.4305                 7.7937                 9.4670
 Frc consts  --      0.0633                 0.0664                 0.1246
 IR Inten    --     12.2366                 0.1795                15.4702

                     16                     17                     18
                      A                      A                      A
 Frequencies --    158.6972               170.1858               190.4838
 Red. masses --      2.8385                 5.7124                 5.5774
 Frc consts  --      0.0421                 0.0975                 0.1192
 IR Inten    --     16.3491                12.2242                 0.6201

                     19                     20                     21
                      A                      A                      A
 Frequencies --    229.4560               239.7543               242.0321
 Red. masses --      7.3631                 1.6449                 2.0858
 Frc consts  --      0.2284                 0.0557                 0.0720
 IR Inten    --      6.3406                 0.6445                 0.4167

                     22                     23                     24
                      A                      A                      A
 Frequencies --    252.6732               262.7099               301.2031
 Red. masses --      1.0884                 5.4438                 3.9668
 Frc consts  --      0.0409                 0.2214                 0.2120
 IR Inten    --      1.2587                 9.6250                11.3812

                     25                     26                     27
                      A                      A                      A
 Frequencies --    323.0688               336.6768               352.1595
 Red. masses --     12.4626                 7.2070                 6.3994
 Frc consts  --      0.7664                 0.4813                 0.4676
 IR Inten    --      0.8799                 2.0048                10.4657

                     28                     29                     30
                      A                      A                      A
 Frequencies --    357.4616               447.5853               453.2183
 Red. masses --      6.6973                 8.8917                 4.8141
 Frc consts  --      0.5042                 1.0495                 0.5826
 IR Inten    --     21.8960                 9.8151                12.1030

                     31                     32                     33
                      A                      A                      A
 Frequencies --    482.4870               517.4352               523.1526
 Red. masses --      5.9395                10.7644                 5.6587
 Frc consts  --      0.8146                 1.6981                 0.9125
 IR Inten    --      2.0674                 3.8839                39.5135

                     34                     35                     36
                      A                      A                      A
 Frequencies --    578.0434               580.5642               600.1160
 Red. masses --      5.3854                 1.8864                10.3559
 Frc consts  --      1.0602                 0.3746                 2.1974
 IR Inten    --      1.0785                 0.6722                 0.1182

                     37                     38                     39
                      A                      A                      A
 Frequencies --    643.2579               651.7916               653.8828
 Red. masses --      1.5719                 3.4963                 4.9374
 Frc consts  --      0.3832                 0.8751                 1.2438
 IR Inten    --     90.9964                87.9010                16.1056

                     40                     41                     42
                      A                      A                      A
 Frequencies --    660.6798               708.9078               711.3806
 Red. masses --      3.0353                 2.6260                 8.0184
 Frc consts  --      0.7806                 0.7775                 2.3908
 IR Inten    --     56.4657                43.8757                52.5440

                     43                     44                     45
                      A                      A                      A
 Frequencies --    758.2912               772.0450               793.3120
 Red. masses --      1.1393                 2.5238                 6.1953
 Frc consts  --      0.3860                 0.8863                 2.2972
 IR Inten    --     24.1015                92.9876                 9.9157

                     46                     47                     48
                      A                      A                      A
 Frequencies --    813.2712               823.3686               847.4158
 Red. masses --      1.4058                 1.5013                11.1794
 Frc consts  --      0.5478                 0.5997                 4.7300
 IR Inten    --    108.6593                87.7975                79.0306

                     49                     50                     51
                      A                      A                      A
 Frequencies --    878.2387               887.1110               903.2113
 Red. masses --      1.5368                 3.9605                 1.6122
 Frc consts  --      0.6984                 1.8363                 0.7749
 IR Inten    --     81.1968                40.3427                62.1986

                     52                     53                     54
                      A                      A                      A
 Frequencies --    906.5441               916.9439               926.5723
 Red. masses --      1.1575                 1.3759                 1.7920
 Frc consts  --      0.5605                 0.6816                 0.9064
 IR Inten    --      3.6100                 4.4440                 2.4633

                     55                     56                     57
                      A                      A                      A
 Frequencies --    968.6361              1010.2487              1025.7199
 Red. masses --      5.1793                 5.9777                 1.6577
 Frc consts  --      2.8631                 3.5945                 1.0276
 IR Inten    --     58.5067                27.5972                14.8375

                     58                     59                     60
                      A                      A                      A
 Frequencies --   1052.2744              1083.4700              1110.2105
 Red. masses --      4.1238                 2.6140                 1.7926
 Frc consts  --      2.6903                 1.8080                 1.3018
 IR Inten    --     30.4180                25.8813                 2.3369

                     61                     62                     63
                      A                      A                      A
 Frequencies --   1110.8736              1132.5949              1141.2298
 Red. masses --      2.3263                 2.4880                 6.5889
 Frc consts  --      1.6914                 1.8804                 5.0560
 IR Inten    --     19.5265               127.2960               396.0442

                     64                     65                     66
                      A                      A                      A
 Frequencies --   1150.1130              1160.2330              1177.7175
 Red. masses --      2.3824                 2.1179                 3.9491
 Frc consts  --      1.8567                 1.6797                 3.2273
 IR Inten    --     28.6214                40.0133                25.2938

                     67                     68                     69
                      A                      A                      A
 Frequencies --   1180.9237              1187.4694              1271.2335
 Red. masses --      1.6325                 4.0122                 2.4516
 Frc consts  --      1.3414                 3.3333                 2.3343
 IR Inten    --      0.3498               453.7660               216.5069

                     70                     71                     72
                      A                      A                      A
 Frequencies --   1285.3513              1294.9148              1298.6026
 Red. masses --      1.1879                 1.1688                 2.4389
 Frc consts  --      1.1563                 1.1547                 2.4232
 IR Inten    --      0.8515                 0.4761               346.0982

                     73                     74                     75
                      A                      A                      A
 Frequencies --   1310.5201              1330.0253              1332.3077
 Red. masses --      1.5646                 1.8024                 1.0712
 Frc consts  --      1.5832                 1.8785                 1.1203
 IR Inten    --    367.2915               169.3863                 1.2175

                     76                     77                     78
                      A                      A                      A
 Frequencies --   1336.2635              1355.8934              1391.6403
 Red. masses --      2.0359                 1.8561                 5.1761
 Frc consts  --      2.1419                 2.0105                 5.9062
 IR Inten    --    177.4642               368.3256               342.7240

                     79                     80                     81
                      A                      A                      A
 Frequencies --   1417.5707              1418.1912              1427.1404
 Red. masses --      1.2700                 1.3187                 1.6867
 Frc consts  --      1.5036                 1.5627                 2.0240
 IR Inten    --      2.8224                32.5646                33.6628

                     82                     83                     84
                      A                      A                      A
 Frequencies --   1447.4819              1462.0978              1480.7087
 Red. masses --      1.7231                 1.9133                 4.1817
 Frc consts  --      2.1271                 2.4098                 5.4018
 IR Inten    --    266.3811               218.6637                89.3116

                     85                     86                     87
                      A                      A                      A
 Frequencies --   1483.8371              1500.6647              1501.3429
 Red. masses --      1.0607                 1.0388                 1.0389
 Frc consts  --      1.3760                 1.3783                 1.3797
 IR Inten    --      5.0011                13.4692                14.7000

                     88                     89                     90
                      A                      A                      A
 Frequencies --   1506.4525              1507.8536              1510.5085
 Red. masses --      1.0900                 1.0882                 3.4637
 Frc consts  --      1.4575                 1.4577                 4.6563
 IR Inten    --     62.1638                14.0025               538.8179

                     91                     92                     93
                      A                      A                      A
 Frequencies --   1528.5170              1542.1154              1609.7825
 Red. masses --      1.1044                 6.8815                 2.6233
 Frc consts  --      1.5203                 9.6420                 4.0053
 IR Inten    --     50.0791               972.9944               647.8592

                     94                     95                     96
                      A                      A                      A
 Frequencies --   1617.7979              1656.2898              1685.4649
 Red. masses --      2.1209                 7.1558                 5.9998
 Frc consts  --      3.2706                11.5659                10.0421
 IR Inten    --   1421.0127               181.9264               138.7965

                     97                     98                     99
                      A                      A                      A
 Frequencies --   1725.5082              3063.0332              3067.1594
 Red. masses --      1.7457                 1.0586                 1.0389
 Frc consts  --      3.0624                 5.8518                 5.7581
 IR Inten    --    475.1606                17.8580                26.6297

                    100                    101                    102
                      A                      A                      A
 Frequencies --   3071.2708              3074.8904              3078.9493
 Red. masses --      1.0583                 1.0368                 1.0621
 Frc consts  --      5.8815                 5.7757                 5.9325
 IR Inten    --    115.3892                46.0669                17.7307

                    103                    104                    105
                      A                      A                      A
 Frequencies --   3092.6723              3111.8161              3112.5158
 Red. masses --      1.1041                 1.1014                 1.1062
 Frc consts  --      6.2217                 6.2836                 6.3138
 IR Inten    --      7.1561                 6.5867                41.8724

                    106                    107                    108
                      A                      A                      A
 Frequencies --   3135.8026              3143.3553              3143.6111
 Red. masses --      1.1041                 1.1025                 1.1024
 Frc consts  --      6.3969                 6.4182                 6.4186
 IR Inten    --     98.3132                49.7959                47.1098

                    109                    110                    111
                      A                      A                      A
 Frequencies --   3148.0582              3233.3928              3239.5346
 Red. masses --      1.1037                 1.0929                 1.0885
 Frc consts  --      6.4445                 6.7320                 6.7303
 IR Inten    --     56.0943                35.9302              1128.9016

                    112                    113                    114
                      A                      A                      A
 Frequencies --   3257.9379              3282.6308              3371.8929
 Red. masses --      1.0938                 1.0919                 1.0854
 Frc consts  --      6.8404                 6.9324                 7.2711
 IR Inten    --      5.4192                15.2867              1223.5500

 - Thermochemistry -
 -------------------
 Temperature   298.150 Kelvin.  Pressure   1.00000 Atm.
 Atom     1 has atomic number  6 and mass  12.00000

 Molecular mass:   353.08798 amu.
 Principal axes and moments of inertia in atomic units:
                           1         2         3
     Eigenvalues --  6601.74108********************
           X            0.99989   0.01479  -0.00226
           Y           -0.01477   0.99985   0.00905
           Z            0.00239  -0.00902   0.99996
 This molecule is an asymmetric top.
 Rotational symmetry number  1.
 Warning -- assumption of classical behavior for rotation
           may cause significant error
 Rotational temperatures (Kelvin)      0.01312     0.00540     0.00393
 Rotational constants (GHZ):           0.27337     0.11252     0.08184
 Zero-point vibrational energy     802612.3 (Joules/Mol)
                                  191.82894 (Kcal/Mol)
 Warning -- explicit consideration of  36 degrees of freedom as
           vibrations may cause significant error
 Vibrational temperatures:     20.81    33.37    37.86    39.87    53.14
          (Kelvin)             68.54    74.04    83.98    89.87    95.18
                              107.49   147.59   162.37   173.06   215.03
                              228.33   244.86   274.06   330.14   344.95
                              348.23   363.54   377.98   433.36   464.82
                              484.40   506.68   514.31   643.97   652.08
                              694.19   744.47   752.70   831.67   835.30
                              863.43   925.50   937.78   940.79   950.57
                             1019.96  1023.52  1091.01  1110.80  1141.40
                             1170.11  1184.64  1219.24  1263.59  1276.35
                             1299.52  1304.31  1319.28  1333.13  1393.65
                             1453.52  1475.78  1513.99  1558.87  1597.34
                             1598.30  1629.55  1641.97  1654.75  1669.31
                             1694.47  1699.08  1708.50  1829.02  1849.33
                             1863.09  1868.40  1885.54  1913.61  1916.89
                             1922.58  1950.83  2002.26  2039.57  2040.46
                             2053.33  2082.60  2103.63  2130.41  2134.91
                             2159.12  2160.09  2167.45  2169.46  2173.28
                             2199.19  2218.76  2316.12  2327.65  2383.03
                             2425.01  2482.62  4407.02  4412.95  4418.87
                             4424.08  4429.92  4449.66  4477.20  4478.21
                             4511.71  4522.58  4522.95  4529.35  4652.13
                             4660.96  4687.44  4722.97  4851.40

 Zero-point correction=                           0.305699 (Hartree/Particle)
 Thermal correction to Energy=                    0.330582
 Thermal correction to Enthalpy=                  0.331526
 Thermal correction to Gibbs Free Energy=         0.244752
 Sum of electronic and zero-point Energies=          -1638.443720
 Sum of electronic and thermal Energies=             -1638.418837
 Sum of electronic and thermal Enthalpies=           -1638.417893
 Sum of electronic and thermal Free Energies=        -1638.504667

                     E (Thermal)             CV                S
                      KCal/Mol        Cal/Mol-Kelvin    Cal/Mol-Kelvin
 Total                  207.444             86.394            182.633
 Electronic               0.000              0.000              0.000
 Translational            0.889              2.981             43.478
 Rotational               0.889              2.981             36.100
 Vibrational            205.666             80.432            103.055
 Vibration     1          0.593              1.986              7.278
 Vibration     2          0.593              1.985              6.340
 Vibration     3          0.593              1.985              6.089
 Vibration     4          0.593              1.984              5.987
 Vibration     5          0.594              1.982              5.417
 Vibration     6          0.595              1.978              4.913
 Vibration     7          0.596              1.977              4.760
 Vibration     8          0.596              1.974              4.512
 Vibration     9          0.597              1.972              4.378
 Vibration    10          0.598              1.970              4.265
 Vibration    11          0.599              1.966              4.025
 Vibration    12          0.605              1.947              3.405
 Vibration    13          0.607              1.939              3.219
 Vibration    14          0.609              1.932              3.096
 Vibration    15          0.618              1.903              2.679
 Vibration    16          0.621              1.893              2.565
 Vibration    17          0.625              1.879              2.433
 Vibration    18          0.634              1.853              2.223
 Vibration    19          0.652              1.796              1.883
 Vibration    20          0.657              1.780              1.805
 Vibration    21          0.658              1.776              1.788
 Vibration    22          0.664              1.758              1.712
 Vibration    23          0.670              1.741              1.644
 Vibration    24          0.693              1.671              1.410
 Vibration    25          0.708              1.629              1.295
 Vibration    26          0.717              1.602              1.228
 Vibration    27          0.729              1.571              1.157
 Vibration    28          0.733              1.560              1.133
 Vibration    29          0.807              1.366              0.803
 Vibration    30          0.812              1.354              0.786
 Vibration    31          0.839              1.289              0.703
 Vibration    32          0.872              1.211              0.616
 Vibration    33          0.878              1.199              0.603
 Vibration    34          0.935              1.079              0.489
 Vibration    35          0.937              1.073              0.484
 Vibration    36          0.958              1.032              0.449

 Normal termination of Gaussian 09 at Thu Nov 14 23:48:45 2019.
