 Gaussian 09, Revision E.01,

 ----------------------------------------------------------------------
 # M062X/6-311+G* SCF=Tight INT(grid=ultrafine) OPT IOP(2/17=4) Empiric
 alDispersion=GD3 maxdisk=2684354560
 ----------------------------------------------------------------------

 -------------------------------------
 NM3_c2_carboxy.M062X_6-311pGd_opt_GD3
 -------------------------------------
 Symbolic Z-matrix:
 Charge = -1 Multiplicity = 1

 SCF Done:  E(RM062X) =  -1638.67839665     A.U. after   17 cycles
 Optimization completed.
    -- Stationary point found.
 Normal termination of Gaussian 09 at Thu Nov 14 22:07:26 2019.
 Gaussian 09:  ES64L-G09RevE.01 30-Nov-2015

 ----------------------------------------------------------------------
 # M062X/6-311+G* SCF=Tight INT(grid=ultrafine) EmpiricalDispersion=GD3
  Freq=Noraman maxdisk=2684354560 geom=check guess=read IOP(2/17=4)
 ----------------------------------------------------------------------

 -------------------------------------
 NM3_c2_carboxy.M062X_6-311pGd_opt_GD3
 -------------------------------------
 Structure from the checkpoint file:  "NM3_c2_carboxy.M062X_6-311pGd_opt_GD3.chk"
 Charge = -1 Multiplicity = 1

                         Standard orientation:
 ---------------------------------------------------------------------
 Center     Atomic      Atomic             Coordinates (Angstroms)
 Number     Number       Type             X           Y           Z
 ---------------------------------------------------------------------
      1          6           0        0.895268   -0.685751   -0.033761
      2          7           0       -0.478356   -0.622884   -0.057713
      3          6           0       -1.369589   -1.687867   -0.003456
      4          8           0       -1.028605   -2.864736    0.058379
      5          7           0       -2.660742   -1.283321   -0.036920
      6          6           0       -3.731363   -2.245362    0.090903
      7          6           0       -5.057530   -1.595079   -0.283118
      8          6           0       -6.226682   -2.559042   -0.108869
      9          6           0        1.584338    0.545132   -0.089347
     10          6           0        2.965603    0.562357   -0.074578
     11          6           0        3.722980   -0.607584   -0.000754
     12          6           0        3.023681   -1.799874    0.054337
     13          6           0        1.639345   -1.875606    0.038708
     14          1           0       -0.875638    0.337350   -0.103723
     15          1           0       -2.901951   -0.282323    0.021243
     16          1           0       -3.782129   -2.638681    1.116291
     17          1           0       -3.523165   -3.101431   -0.558085
     18          1           0       -4.998946   -1.248134   -1.319149
     19          1           0       -5.203626   -0.698374    0.326181
     20          1           0       -6.097791   -3.453196   -0.726065
     21          1           0       -7.174235   -2.094009   -0.390405
     22          1           0       -6.314692   -2.887550    0.930712
     23          1           0        1.006980    1.462941   -0.147261
     24         17           0        3.937079   -3.296697    0.142505
     25          1           0        1.131760   -2.827022    0.079510
     26          6           0        3.690849    1.873984   -0.072396
     27          1           0        4.804564   -0.587540    0.005000
     28          9           0        4.026600    2.263567    1.175431
     29          9           0        4.849216    1.813304   -0.761010
     30          9           0        2.975073    2.871041   -0.603248
     31          8           0       -1.316708    1.997466   -0.138187
     32          8           0       -3.459872    1.423292    0.146501
     33          6           0       -2.537084    2.258202    0.022067
     34          6           0       -2.900756    3.749687    0.064419
     35          6           0       -4.383803    4.027070    0.266461
     36          1           0       -2.537536    4.194244   -0.867415
     37          1           0       -2.300391    4.203338    0.859097
     38          1           0       -4.973499    3.577363   -0.534096
     39          1           0       -4.589377    5.101773    0.288684
     40          1           0       -4.735061    3.587549    1.201534
 ---------------------------------------------------------------------

 SCF Done:  E(RM062X) =  -1638.67839665     A.U. after    2 cycles

 The electronic state is 1-A.
 Alpha  occ. eigenvalues -- -102.58697 -25.18819 -25.18745 -25.18376 -19.46916
 Alpha  occ. eigenvalues --  -19.44487 -19.44224 -14.65271 -14.63383 -10.71108
 Alpha  occ. eigenvalues --  -10.55267 -10.51815 -10.50690 -10.50309 -10.48062
 Alpha  occ. eigenvalues --  -10.46341 -10.46164 -10.45409 -10.45070 -10.44203
 Alpha  occ. eigenvalues --  -10.43562 -10.41694 -10.41652  -9.72971  -7.45470
 Alpha  occ. eigenvalues --   -7.44821  -7.44813  -1.37970  -1.28708  -1.28214
 Alpha  occ. eigenvalues --   -1.05754  -1.03550  -0.94441  -0.93691  -0.91378
 Alpha  occ. eigenvalues --   -0.89748  -0.85315  -0.79154  -0.77663  -0.74998
 Alpha  occ. eigenvalues --   -0.74186  -0.71638  -0.68179  -0.64055  -0.61874
 Alpha  occ. eigenvalues --   -0.61372  -0.60315  -0.59660  -0.58051  -0.57249
 Alpha  occ. eigenvalues --   -0.53651  -0.51481  -0.49333  -0.48698  -0.48371
 Alpha  occ. eigenvalues --   -0.47982  -0.46146  -0.45248  -0.44839  -0.44256
 Alpha  occ. eigenvalues --   -0.43107  -0.42996  -0.42360  -0.41628  -0.41293
 Alpha  occ. eigenvalues --   -0.41062  -0.40578  -0.39789  -0.38827  -0.38366
 Alpha  occ. eigenvalues --   -0.37814  -0.36826  -0.35887  -0.35434  -0.34332
 Alpha  occ. eigenvalues --   -0.33822  -0.33044  -0.32724  -0.32057  -0.31008
 Alpha  occ. eigenvalues --   -0.30661  -0.29863  -0.29190  -0.28826  -0.27175
 Alpha  occ. eigenvalues --   -0.23241  -0.21843  -0.20393  -0.19921  -0.19472
 Alpha  occ. eigenvalues --   -0.19269  -0.16152
 Alpha virt. eigenvalues --    0.09326   0.09582   0.09788   0.10438   0.10824
 Alpha virt. eigenvalues --    0.11149   0.11682   0.11926   0.12263   0.12553
 Alpha virt. eigenvalues --    0.13286   0.13375   0.13895   0.14039   0.14662

 Mulliken charges:
               1
     1  C   -0.906556
     2  N   -0.463688
     3  C    0.056078
     4  O   -0.393888
     5  N   -0.331691
     6  C   -0.479941
     7  C   -0.130231
     8  C   -1.069760
     9  C   -0.621070
    10  C   -0.504903
    11  C   -0.076585
    12  C    0.922901
    13  C   -0.699610
    14  H    0.476140
    15  H    0.447839
    16  H    0.238214
    17  H    0.235141
    18  H    0.260687
    19  H    0.284389
    20  H    0.245283
    21  H    0.252625
    22  H    0.247901
    23  H    0.382143
    24  Cl   0.368619
    25  H    0.328895
    26  C    0.793744
    27  H    0.279646
    28  F   -0.067523
    29  F   -0.112794
    30  F   -0.111842
    31  O   -0.486552
    32  O   -0.427783
    33  C    0.033764
    34  C   -0.183134
    35  C   -1.022634
    36  H    0.245983
    37  H    0.245848
    38  H    0.257534
    39  H    0.230337
    40  H    0.256473
 Sum of Mulliken charges =  -1.00000

 Dipole moment (field-independent basis, Debye):
    X=              1.5430    Y=             -0.3581    Z=             -0.1413  Tot=              1.5903
 Quadrupole moment (field-independent basis, Debye-Ang):
   XX=           -193.0384   YY=           -181.2857   ZZ=           -148.6168
   XY=              5.8508   XZ=              0.6825   YZ=              0.5269

  Exact polarizability: 289.072  -5.077 232.754  -0.571  -3.360 133.330
 Approx polarizability: 295.333  -3.434 267.004  -1.078  -5.412 178.013

                      1                      2                      3
                      A                      A                      A
 Frequencies --     12.2956                16.5336                19.5948
 Red. masses --      2.9519                 4.3621                11.7800
 Frc consts  --      0.0003                 0.0007                 0.0027
 IR Inten    --      0.2365                 0.6272                 0.1215

                      4                      5                      6
                      A                      A                      A
 Frequencies --     24.2475                35.9612                40.3227
 Red. masses --      3.2346                 2.0369                 7.0493
 Frc consts  --      0.0011                 0.0016                 0.0068
 IR Inten    --      0.3859                 0.4527                 0.0998

                      7                      8                      9
                      A                      A                      A
 Frequencies --     45.8206                58.0413                60.8612
 Red. masses --      6.1530                 3.6618                 4.5536
 Frc consts  --      0.0076                 0.0073                 0.0099
 IR Inten    --      1.9745                 1.1393                 1.6691

                     10                     11                     12
                      A                      A                      A
 Frequencies --     69.8500                79.2950               103.5922
 Red. masses --      6.1189                 5.3435                 8.2591
 Frc consts  --      0.0176                 0.0198                 0.0522
 IR Inten    --      0.4347                 6.5652                 6.4746

                     13                     14                     15
                      A                      A                      A
 Frequencies --    120.5946               128.8604               142.9704
 Red. masses --      6.3487                 8.7749                11.4666
 Frc consts  --      0.0544                 0.0858                 0.1381
 IR Inten    --      0.5029                 7.6928                 3.6667

                     16                     17                     18
                      A                      A                      A
 Frequencies --    163.2535               192.1834               204.3343
 Red. masses --      3.7102                 3.7286                 5.5970
 Frc consts  --      0.0583                 0.0811                 0.1377
 IR Inten    --     11.8093                12.0283                 0.5207

                     19                     20                     21
                      A                      A                      A
 Frequencies --    215.4074               232.2763               238.3815
 Red. masses --      1.1425                 6.9393                 1.3391
 Frc consts  --      0.0312                 0.2206                 0.0448
 IR Inten    --      0.5322                 4.3564                 0.4921

                     22                     23                     24
                      A                      A                      A
 Frequencies --    242.4473               264.7573               297.9204
 Red. masses --      3.0973                 5.4336                 3.9816
 Frc consts  --      0.1073                 0.2244                 0.2082
 IR Inten    --      0.4495                 5.6140                11.7089

                     25                     26                     27
                      A                      A                      A
 Frequencies --    326.7308               335.7746               342.7906
 Red. masses --     11.9719                 6.7337                 5.9513
 Frc consts  --      0.7530                 0.4473                 0.4120
 IR Inten    --      2.5661                 0.1615                 4.3691

                     28                     29                     30
                      A                      A                      A
 Frequencies --    372.1830               429.2754               470.5701
 Red. masses --      7.1559                 8.3386                 6.3167
 Frc consts  --      0.5840                 0.9053                 0.8241
 IR Inten    --     20.6580                 5.2426                 4.8000

                     31                     32                     33
                      A                      A                      A
 Frequencies --    476.9965               516.8939               523.0646
 Red. masses --      5.0451                11.0687                 5.7287
 Frc consts  --      0.6763                 1.7424                 0.9235
 IR Inten    --      0.5612                 1.5916                32.8293

                     34                     35                     36
                      A                      A                      A
 Frequencies --    583.6116               587.5884               599.2570
 Red. masses --      1.9442                 5.7640                10.4777
 Frc consts  --      0.3901                 1.1725                 2.2169
 IR Inten    --      0.4815                 0.2079                 0.1493

                     37                     38                     39
                      A                      A                      A
 Frequencies --    650.8445               655.8541               661.2342
 Red. masses --      5.9458                 5.3502                 4.7465
 Frc consts  --      1.4839                 1.3559                 1.2227
 IR Inten    --     31.5736                 4.4530                21.2586

                     40                     41                     42
                      A                      A                      A
 Frequencies --    718.1723               720.3293               750.2994
 Red. masses --     10.1862                 2.5680                 1.0968
 Frc consts  --      3.0954                 0.7851                 0.3638
 IR Inten    --     45.3757                14.3986                 2.5986

                     43                     44                     45
                      A                      A                      A
 Frequencies --    771.9001               788.8086               818.2558
 Red. masses --      2.7929                 5.7005                 1.5646
 Frc consts  --      0.9804                 2.0898                 0.6172
 IR Inten    --     52.6549                19.9376                 2.7600

                     46                     47                     48
                      A                      A                      A
 Frequencies --    825.8772               851.5270               853.4960
 Red. masses --      1.4571                 1.8648                 4.3843
 Frc consts  --      0.5855                 0.7967                 1.8817
 IR Inten    --     11.3048                27.3659                28.0645

                     49                     50                     51
                      A                      A                      A
 Frequencies --    889.1205               901.2406               919.9174
 Red. masses --      3.9813                 1.1856                 1.8294
 Frc consts  --      1.8544                 0.5674                 0.9121
 IR Inten    --     46.9335                 3.0317                 1.7602

                     52                     53                     54
                      A                      A                      A
 Frequencies --    924.9626               942.7470               970.7042
 Red. masses --      1.4678                 1.2377                 4.6091
 Frc consts  --      0.7399                 0.6481                 2.5588
 IR Inten    --     30.5914                15.1642                31.6352

                     55                     56                     57
                      A                      A                      A
 Frequencies --    983.1365              1005.1826              1019.5827
 Red. masses --      1.1897                 5.8928                 1.6899
 Frc consts  --      0.6775                 3.5080                 1.0350
 IR Inten    --     95.0843                54.1125                 3.7714

                     58                     59                     60
                      A                      A                      A
 Frequencies --   1050.9775              1081.3651              1108.5121
 Red. masses --      3.8603                 2.8492                 1.8009
 Frc consts  --      2.5122                 1.9630                 1.3039
 IR Inten    --     40.0986                30.3160                 1.0494

                     61                     62                     63
                      A                      A                      A
 Frequencies --   1109.8980              1135.7708              1143.1357
 Red. masses --      2.3570                 1.6140                 2.3008
 Frc consts  --      1.7107                 1.2267                 1.7714
 IR Inten    --      4.0617                14.7559                63.9530

                     64                     65                     66
                      A                      A                      A
 Frequencies --   1158.0246              1173.4747              1181.2582
 Red. masses --      2.1977                10.2162                 1.7879
 Frc consts  --      1.7364                 8.2887                 1.4699
 IR Inten    --     20.2791               276.5233                32.4391

                     67                     68                     69
                      A                      A                      A
 Frequencies --   1193.4219              1221.2528              1280.0742
 Red. masses --      3.5325                 8.0666                 1.1928
 Frc consts  --      2.9643                 7.0885                 1.1516
 IR Inten    --     19.1294               241.9138                12.9459

                     70                     71                     72
                      A                      A                      A
 Frequencies --   1283.9050              1289.7750              1302.0235
 Red. masses --      1.7845                 1.1852                 2.4060
 Frc consts  --      1.7332                 1.1616                 2.4032
 IR Inten    --     75.4013                 0.5371                77.3681

                     73                     74                     75
                      A                      A                      A
 Frequencies --   1317.3362              1328.2043              1332.1218
 Red. masses --      1.7099                 1.6750                 1.1620
 Frc consts  --      1.7482                 1.7410                 1.2149
 IR Inten    --    300.9319                58.4649                78.3298

                     76                     77                     78
                      A                      A                      A
 Frequencies --   1350.6846              1368.1803              1398.0644
 Red. masses --      2.4357                 1.9030                 4.8995
 Frc consts  --      2.6180                 2.0988                 5.6423
 IR Inten    --     85.0795               267.3316               426.2577

                     79                     80                     81
                      A                      A                      A
 Frequencies --   1416.7710              1420.6721              1430.3804
 Red. masses --      1.3126                 1.2824                 1.6591
 Frc consts  --      1.5523                 1.5250                 1.9999
 IR Inten    --     19.1607                 3.0396                 2.8275

                     82                     83                     84
                      A                      A                      A
 Frequencies --   1461.6241              1481.1651              1484.7556
 Red. masses --      4.2849                 3.6440                 1.2319
 Frc consts  --      5.3934                 4.7102                 1.6001
 IR Inten    --    422.4652                84.8356                10.8390

                     85                     86                     87
                      A                      A                      A
 Frequencies --   1507.4684              1509.1141              1520.4882
 Red. masses --      1.0642                 1.0388                 1.0843
 Frc consts  --      1.4249                 1.3939                 1.4769
 IR Inten    --      5.8752                 6.3833                49.3774

                     88                     89                     90
                      A                      A                      A
 Frequencies --   1521.0472              1525.2461              1529.7540
 Red. masses --      1.0409                 1.0694                 4.0399
 Frc consts  --      1.4189                 1.4658                 5.5701
 IR Inten    --      8.9525                 2.2920               244.4912

                     91                     92                     93
                      A                      A                      A
 Frequencies --   1540.2123              1617.6004              1641.3636
 Red. masses --      1.0972                 2.8106                 3.6290
 Frc consts  --      1.5335                 4.3330                 5.7604
 IR Inten    --      3.2731               150.9398               110.0137

                     94                     95                     96
                      A                      A                      A
 Frequencies --   1675.0556              1688.1677              1714.5947
 Red. masses --      4.8300                 2.6451                 2.9564
 Frc consts  --      7.9846                 4.4415                 5.1209
 IR Inten    --    654.6683               294.8162               621.1162

                     97                     98                     99
                      A                      A                      A
 Frequencies --   1791.2912              3016.3569              3043.0591
 Red. masses --      2.6003                 1.0717                 1.0961
 Frc consts  --      4.9159                 5.7448                 5.9805
 IR Inten    --    363.4714                69.5978              1189.6092

                    100                    101                    102
                      A                      A                      A
 Frequencies --   3055.9257              3059.9860              3072.6743
 Red. masses --      1.0366                 1.0438                 1.0603
 Frc consts  --      5.7037                 5.7584                 5.8982
 IR Inten    --     48.0631                14.3592                22.7593

                    103                    104                    105
                      A                      A                      A
 Frequencies --   3076.6784              3084.4274              3102.9945
 Red. masses --      1.0626                 1.0905                 1.1012
 Frc consts  --      5.9262                 6.1126                 6.2474
 IR Inten    --     15.4655                41.7783                10.7834

                    106                    107                    108
                      A                      A                      A
 Frequencies --   3106.2934              3129.3461              3129.8317
 Red. masses --      1.1019                 1.1009                 1.0961
 Frc consts  --      6.2644                 6.3520                 6.3262
 IR Inten    --      0.5586                44.7582                46.3467

                    109                    110                    111
                      A                      A                      A
 Frequencies --   3130.2449              3150.0496              3210.1768
 Red. masses --      1.1036                 1.1023                 1.0935
 Frc consts  --      6.3711                 6.4445                 6.6393
 IR Inten    --     57.7253                37.2346                 7.3046

                    112                    113                    114
                      A                      A                      A
 Frequencies --   3239.3618              3248.5771              3281.9022
 Red. masses --      1.0894                 1.0924                 1.0922
 Frc consts  --      6.7354                 6.7921                 6.9311
 IR Inten    --   1367.8877                 3.5603                19.8458

 - Thermochemistry -
 -------------------
 Temperature   298.150 Kelvin.  Pressure   1.00000 Atm.
 Atom     1 has atomic number  6 and mass  12.00000

 Molecular mass:   353.08798 amu.
 Principal axes and moments of inertia in atomic units:
                           1         2         3
     Eigenvalues --  6855.66329********************
           X            0.99999  -0.00496  -0.00000
           Y            0.00496   0.99998   0.00281
           Z           -0.00001  -0.00281   1.00000
 This molecule is an asymmetric top.
 Rotational symmetry number  1.
 Warning -- assumption of classical behavior for rotation
           may cause significant error
 Rotational temperatures (Kelvin)      0.01263     0.00583     0.00407
 Rotational constants (GHZ):           0.26325     0.12152     0.08471
 Zero-point vibrational energy     805205.5 (Joules/Mol)
                                  192.44874 (Kcal/Mol)
 Warning -- explicit consideration of  36 degrees of freedom as
           vibrations may cause significant error
 Vibrational temperatures:     17.69    23.79    28.19    34.89    51.74
          (Kelvin)             58.02    65.93    83.51    87.57   100.50
                              114.09   149.05   173.51   185.40   205.70
                              234.89   276.51   293.99   309.92   334.19
                              342.98   348.83   380.93   428.64   470.09
                              483.10   493.20   535.49   617.63   677.04
                              686.29   743.69   752.57   839.69   845.41
                              862.20   936.42   943.63   951.37  1033.29
                             1036.39  1079.51  1110.59  1134.92  1177.29
                             1188.25  1225.16  1227.99  1279.24  1296.68
                             1323.55  1330.81  1356.40  1396.63  1414.51
                             1446.23  1466.95  1512.12  1555.84  1594.90
                             1596.89  1634.12  1644.72  1666.14  1688.37
                             1699.56  1717.07  1757.11  1841.74  1847.25
                             1855.70  1873.32  1895.35  1910.99  1916.62
                             1943.33  1968.50  2011.50  2038.41  2044.03
                             2058.00  2102.95  2131.06  2136.23  2168.91
                             2171.28  2187.64  2188.44  2194.49  2200.97
                             2216.02  2327.36  2361.55  2410.03  2428.89
                             2466.92  2577.27  4339.86  4378.28  4396.79
                             4402.63  4420.89  4426.65  4437.80  4464.51
                             4469.26  4502.43  4503.12  4503.72  4532.21
                             4618.72  4660.71  4673.97  4721.92

 Zero-point correction=                           0.306687 (Hartree/Particle)
 Thermal correction to Energy=                    0.331468
 Thermal correction to Enthalpy=                  0.332413
 Thermal correction to Gibbs Free Energy=         0.244911
 Sum of electronic and zero-point Energies=          -1638.371710
 Sum of electronic and thermal Energies=             -1638.346928
 Sum of electronic and thermal Enthalpies=           -1638.345984
 Sum of electronic and thermal Free Energies=        -1638.433485

                     E (Thermal)             CV                S
                      KCal/Mol        Cal/Mol-Kelvin    Cal/Mol-Kelvin
 Total                  208.000             85.634            184.162
 Electronic               0.000              0.000              0.000
 Translational            0.889              2.981             43.478
 Rotational               0.889              2.981             36.026
 Vibrational            206.222             79.672            104.657
 Vibration     1          0.593              1.987              7.600
 Vibration     2          0.593              1.986              7.012
 Vibration     3          0.593              1.986              6.675
 Vibration     4          0.593              1.985              6.252
 Vibration     5          0.594              1.982              5.470
 Vibration     6          0.594              1.981              5.243
 Vibration     7          0.595              1.979              4.990
 Vibration     8          0.596              1.974              4.523
 Vibration     9          0.597              1.973              4.429
 Vibration    10          0.598              1.968              4.158
 Vibration    11          0.600              1.963              3.908
 Vibration    12          0.605              1.946              3.386
 Vibration    13          0.609              1.932              3.091
 Vibration    14          0.611              1.924              2.963
 Vibration    15          0.616              1.910              2.764
 Vibration    16          0.623              1.888              2.512
 Vibration    17          0.634              1.851              2.207
 Vibration    18          0.640              1.834              2.094
 Vibration    19          0.645              1.818              1.997
 Vibration    20          0.653              1.792              1.861
 Vibration    21          0.656              1.782              1.815
 Vibration    22          0.659              1.775              1.785
 Vibration    23          0.671              1.738              1.630
 Vibration    24          0.691              1.678              1.429
 Vibration    25          0.710              1.622              1.276
 Vibration    26          0.717              1.604              1.232
 Vibration    27          0.722              1.590              1.199
 Vibration    28          0.744              1.529              1.071
 Vibration    29          0.791              1.406              0.861
 Vibration    30          0.828              1.315              0.736
 Vibration    31          0.834              1.301              0.718
 Vibration    32          0.872              1.213              0.617
 Vibration    33          0.878              1.199              0.603
 Vibration    34          0.940              1.067              0.479
 Vibration    35          0.945              1.058              0.472
 Vibration    36          0.957              1.033              0.451

 Normal termination of Gaussian 09 at Thu Nov 14 23:36:39 2019.
