 Gaussian 09, Revision E.01,

 ----------------------------------------------------------------------
 # M062X/6-311+G* SCF=Tight INT(grid=ultrafine) OPT IOP(2/17=4) Empiric
 alDispersion=GD3 SCRF=(SMD,Solvent=n-Pentadecane) maxdisk=2684354560
 ----------------------------------------------------------------------

 ----------------------------------------------
 NM3_carboxy.M062X_6-311pGd_opt_Pentadecane_GD3
 ----------------------------------------------
 Symbolic Z-matrix:
 Charge = -1 Multiplicity = 1

 SCF Done:  E(RM062X) =  -1638.71847281     A.U. after   15 cycles
 SCF Done:  E(RM062X) =  -1638.71847275     A.U. after    9 cycles
 SCF Done:  E(RM062X) =  -1638.71847281     A.U. after    9 cycles
 Optimization completed.
    -- Stationary point found.
 Normal termination of Gaussian 09 at Thu Nov 14 22:18:05 2019.
 Gaussian 09:  ES64L-G09RevE.01 30-Nov-2015

 ----------------------------------------------------------------------
 # M062X/6-311+G* SCF=Tight INT(grid=ultrafine) SCRF=(SMD,Solvent=n-Pen
 tadecane) EmpiricalDispersion=GD3 Freq=Noraman maxdisk=2684354560 geom
 =check guess=read IOP(2/17=4)
 ----------------------------------------------------------------------

 ----------------------------------------------
 NM3_carboxy.M062X_6-311pGd_opt_Pentadecane_GD3
 ----------------------------------------------
 Structure from the checkpoint file:  "NM3_carboxy.M062X_6-311pGd_opt_Pentadecane_GD3.chk"
 Charge = -1 Multiplicity = 1

                         Standard orientation:
 ---------------------------------------------------------------------
 Center     Atomic      Atomic             Coordinates (Angstroms)
 Number     Number       Type             X           Y           Z
 ---------------------------------------------------------------------
      1          6           0       -0.889627    0.084608    0.041225
      2          7           0        0.448719   -0.244030    0.066069
      3          6           0        1.002208   -1.516429    0.010496
      4          8           0        0.338155   -2.547113   -0.050921
      5          7           0        2.354116   -1.499689    0.041978
      6          6           0        3.108837   -2.729190   -0.083233
      7          6           0        4.566831   -2.484811    0.282953
      8          6           0        5.405827   -3.747437    0.123808
      9          6           0       -1.943405   -0.840191   -0.043856
     10          6           0       -3.252193   -0.375315   -0.066660
     11          6           0       -3.575396    0.974589   -0.005456
     12          6           0       -2.514993    1.867823    0.078047
     13          6           0       -1.197380    1.459410    0.102698
     14          1           0        1.097554    0.564415    0.126509
     15          1           0        2.866173   -0.607996   -0.022637
     16          1           0        3.040697   -3.123940   -1.106148
     17          1           0        2.670905   -3.486280    0.573506
     18          1           0        4.615892   -2.122296    1.314397
     19          1           0        4.965640   -1.681009   -0.343233
     20          1           0        5.029243   -4.556409    0.756778
     21          1           0        6.448318   -3.570055    0.397988
     22          1           0        5.391987   -4.103935   -0.910188
     23          1           0       -1.725476   -1.896038   -0.094992
     24         17           0       -2.871116    3.582337    0.149518
     25          1           0       -0.387559    2.179262    0.165010
     26          6           0       -4.365938   -1.379148   -0.090355
     27          1           0       -4.600306    1.320035   -0.026912
     28          9           0       -4.701501   -1.792825    1.149114
     29          9           0       -5.493063   -0.882830   -0.633256
     30          9           0       -4.056735   -2.484112   -0.783369
     31          8           0        1.967643    2.065963    0.196074
     32          8           0        3.841593    0.905651   -0.168005
     33          6           0        3.206998    1.971511   -0.007366
     34          6           0        3.981307    3.294382   -0.054032
     35          6           0        5.466830    3.150943   -0.349288
     36          1           0        3.819044    3.793046    0.906923
     37          1           0        3.491359    3.927977   -0.799829
     38          1           0        5.960157    2.539112    0.408080
     39          1           0        5.960226    4.127184   -0.375614
     40          1           0        5.628405    2.660671   -1.311256
 ---------------------------------------------------------------------

 SCF Done:  E(RM062X) =  -1638.71847281     A.U. after    1 cycles

 The electronic state is 1-A.
 Alpha  occ. eigenvalues -- -102.63534 -25.23881 -25.23709 -25.23374 -19.52253
 Alpha  occ. eigenvalues --  -19.50002 -19.49754 -14.70655 -14.68702 -10.76100
 Alpha  occ. eigenvalues --  -10.60617 -10.56793 -10.56140 -10.55482 -10.53078
 Alpha  occ. eigenvalues --  -10.51333 -10.50917 -10.50479 -10.50191 -10.48079
 Alpha  occ. eigenvalues --  -10.48042 -10.46751 -10.46449  -9.77806  -7.50309
 Alpha  occ. eigenvalues --   -7.49654  -7.49643  -1.42997  -1.33712  -1.33239
 Alpha  occ. eigenvalues --   -1.11091  -1.09051  -0.99741  -0.99105  -0.96513
 Alpha  occ. eigenvalues --   -0.94807  -0.90330  -0.84013  -0.82394  -0.80035
 Alpha  occ. eigenvalues --   -0.79107  -0.76732  -0.72827  -0.68964  -0.67189
 Alpha  occ. eigenvalues --   -0.66422  -0.65330  -0.65048  -0.62694  -0.60913
 Alpha  occ. eigenvalues --   -0.59750  -0.56603  -0.54397  -0.53626  -0.53525
 Alpha  occ. eigenvalues --   -0.52958  -0.51419  -0.50087  -0.49748  -0.49272
 Alpha  occ. eigenvalues --   -0.48179  -0.47865  -0.47373  -0.46746  -0.46338
 Alpha  occ. eigenvalues --   -0.46223  -0.45836  -0.44645  -0.43687  -0.43313
 Alpha  occ. eigenvalues --   -0.43263  -0.41595  -0.40561  -0.40271  -0.39622
 Alpha  occ. eigenvalues --   -0.38732  -0.38028  -0.37347  -0.36859  -0.35981
 Alpha  occ. eigenvalues --   -0.35146  -0.34404  -0.34000  -0.33878  -0.32514
 Alpha  occ. eigenvalues --   -0.28576  -0.26618  -0.25856  -0.25432  -0.24938
 Alpha  occ. eigenvalues --   -0.24767  -0.21454
 Alpha virt. eigenvalues --    0.04360   0.05523   0.05914   0.05992   0.06595
 Alpha virt. eigenvalues --    0.07048   0.07616   0.07860   0.08121   0.08738
 Alpha virt. eigenvalues --    0.08895   0.09046   0.09639   0.09746   0.10441

 Mulliken charges:
               1
     1  C   -1.103236
     2  N   -0.447334
     3  C    0.059205
     4  O   -0.417369
     5  N   -0.359093
     6  C   -0.497699
     7  C   -0.128551
     8  C   -1.091509
     9  C   -0.232112
    10  C    0.023585
    11  C   -0.618203
    12  C    0.807826
    13  C   -0.612834
    14  H    0.464294
    15  H    0.452088
    16  H    0.250541
    17  H    0.241237
    18  H    0.267026
    19  H    0.275789
    20  H    0.254741
    21  H    0.263318
    22  H    0.256421
    23  H    0.331339
    24  Cl   0.371473
    25  H    0.365685
    26  C    0.704223
    27  H    0.298287
    28  F   -0.076220
    29  F   -0.131288
    30  F   -0.109693
    31  O   -0.494347
    32  O   -0.450084
    33  C    0.038968
    34  C   -0.212457
    35  C   -1.016506
    36  H    0.255473
    37  H    0.253704
    38  H    0.259885
    39  H    0.244527
    40  H    0.258901
 Sum of Mulliken charges =  -1.00000

 Dipole moment (field-independent basis, Debye):
    X=             -1.7212    Y=             -0.3436    Z=             -0.0900  Tot=              1.7574
 Quadrupole moment (field-independent basis, Debye-Ang):
   XX=           -194.5999   YY=           -172.7781   ZZ=           -148.5081
   XY=            -12.5198   XZ=              1.1694   YZ=             -1.0295

  Exact polarizability: 303.651 -23.870 269.744  -1.052   5.038 147.788
 Approx polarizability: 283.068 -17.085 276.046  -0.481   6.140 177.766

                      1                      2                      3
                      A                      A                      A
 Frequencies --     14.8536                18.4902                26.1157
 Red. masses --     14.3832                 7.5047                 5.3192
 Frc consts  --      0.0019                 0.0015                 0.0021
 IR Inten    --      0.0377                 0.0070                 1.1916

                      4                      5                      6
                      A                      A                      A
 Frequencies --     38.2156                47.5395                52.2814
 Red. masses --      3.4944                 4.4102                 3.8877
 Frc consts  --      0.0030                 0.0059                 0.0063
 IR Inten    --      0.1297                 0.7132                 1.6672

                      7                      8                      9
                      A                      A                      A
 Frequencies --     53.8309                61.6261                68.3987
 Red. masses --      4.7471                 2.5014                 3.0629
 Frc consts  --      0.0081                 0.0056                 0.0084
 IR Inten    --      1.3346                 2.1871                 1.1743

                     10                     11                     12
                      A                      A                      A
 Frequencies --     75.3346                86.8127               105.6277
 Red. masses --      3.6581                 5.6510                 7.0368
 Frc consts  --      0.0122                 0.0251                 0.0463
 IR Inten    --      0.4096                 9.2105                 6.6539

                     13                     14                     15
                      A                      A                      A
 Frequencies --    116.9602               124.6113               156.4641
 Red. masses --      8.3961                 6.9440                11.8466
 Frc consts  --      0.0677                 0.0635                 0.1709
 IR Inten    --      5.9157                 1.0091                11.3311

                     16                     17                     18
                      A                      A                      A
 Frequencies --    164.5110               192.3636               200.0500
 Red. masses --      3.9847                 3.6394                 5.1368
 Frc consts  --      0.0635                 0.0793                 0.1211
 IR Inten    --     13.3970                10.6876                 1.5935

                     19                     20                     21
                      A                      A                      A
 Frequencies --    231.4940               237.8537               239.3490
 Red. masses --      6.9018                 1.1132                 1.2281
 Frc consts  --      0.2179                 0.0371                 0.0415
 IR Inten    --      3.6103                 0.3458                 0.2268

                     22                     23                     24
                      A                      A                      A
 Frequencies --    246.6341               264.5173               302.8545
 Red. masses --      3.8635                 5.2469                 3.9593
 Frc consts  --      0.1385                 0.2163                 0.2140
 IR Inten    --      0.7530                 9.0120                13.5032

                     25                     26                     27
                      A                      A                      A
 Frequencies --    325.2903               338.0434               348.1204
 Red. masses --     11.7896                 7.7493                 5.6308
 Frc consts  --      0.7350                 0.5217                 0.4021
 IR Inten    --      1.5107                 3.1491                14.1745

                     28                     29                     30
                      A                      A                      A
 Frequencies --    357.3487               446.8521               453.6040
 Red. masses --      7.9233                 9.0307                 4.8787
 Frc consts  --      0.5961                 1.0624                 0.5914
 IR Inten    --     13.5128                 7.0434                 6.3937

                     31                     32                     33
                      A                      A                      A
 Frequencies --    483.5004               519.0447               524.1998
 Red. masses --      5.8808                11.0849                 5.7239
 Frc consts  --      0.8100                 1.7595                 0.9267
 IR Inten    --      1.5546                 1.8635                37.7054

                     34                     35                     36
                      A                      A                      A
 Frequencies --    582.7054               586.9115               599.5191
 Red. masses --      5.5191                 1.9443                10.4361
 Frc consts  --      1.1041                 0.3946                 2.2100
 IR Inten    --      0.2741                 0.9834                 0.5556

                     37                     38                     39
                      A                      A                      A
 Frequencies --    652.5395               659.2179               662.5472
 Red. masses --      5.9532                 5.2959                 4.6974
 Frc consts  --      1.4935                 1.3560                 1.2149
 IR Inten    --     49.0322                 1.2625                21.5104

                     40                     41                     42
                      A                      A                      A
 Frequencies --    712.1523               717.1165               756.4430
 Red. masses --     11.1790                 2.5081                 1.1009
 Frc consts  --      3.3404                 0.7599                 0.3712
 IR Inten    --     40.4226                15.6915                 4.4601

                     43                     44                     45
                      A                      A                      A
 Frequencies --    768.7067               792.0540               812.3317
 Red. masses --      2.0779                 6.8439                 1.8384
 Frc consts  --      0.7234                 2.5297                 0.7148
 IR Inten    --     62.1452                 9.7745                 9.7799

                     46                     47                     48
                      A                      A                      A
 Frequencies --    825.1469               846.2420               860.9412
 Red. masses --      1.4763                 9.6040                 1.4993
 Frc consts  --      0.5922                 4.0522                 0.6548
 IR Inten    --     11.5904                58.2441                30.2678

                     49                     50                     51
                      A                      A                      A
 Frequencies --    891.3763               901.0230               922.1620
 Red. masses --      3.8015                 1.1924                 1.6391
 Frc consts  --      1.7796                 0.5703                 0.8212
 IR Inten    --     50.9009                 5.7835                 4.1417

                     52                     53                     54
                      A                      A                      A
 Frequencies --    924.6696               932.9317               963.7685
 Red. masses --      1.5191                 1.2977                 1.2048
 Frc consts  --      0.7653                 0.6655                 0.6593
 IR Inten    --      1.6138                81.9331                81.8645

                     55                     56                     57
                      A                      A                      A
 Frequencies --    971.7119              1007.1581              1025.4634
 Red. masses --      4.8227                 6.0098                 1.6770
 Frc consts  --      2.6830                 3.5917                 1.0390
 IR Inten    --     44.0356                58.9955                 5.5983

                     58                     59                     60
                      A                      A                      A
 Frequencies --   1051.9231              1082.4010              1109.7266
 Red. masses --      3.9316                 2.6888                 1.8110
 Frc consts  --      2.5632                 1.8560                 1.3140
 IR Inten    --     34.6264                23.6942                 1.2603

                     61                     62                     63
                      A                      A                      A
 Frequencies --   1112.3800              1131.6747              1150.6653
 Red. masses --      2.3059                 1.8477                 2.4287
 Frc consts  --      1.6811                 1.3942                 1.8946
 IR Inten    --      5.3357                55.7973                34.6398

                     64                     65                     66
                      A                      A                      A
 Frequencies --   1159.1763              1164.6973              1179.3914
 Red. masses --      2.6087                 4.3113                 1.9454
 Frc consts  --      2.0653                 3.4458                 1.5943
 IR Inten    --     85.2392               241.8731                51.4367

                     67                     68                     69
                      A                      A                      A
 Frequencies --   1188.3812              1203.5192              1278.4497
 Red. masses --      3.1028                 5.7436                 2.0035
 Frc consts  --      2.5817                 4.9016                 1.9293
 IR Inten    --      8.1097               274.8055               121.2664

                     70                     71                     72
                      A                      A                      A
 Frequencies --   1278.8880              1292.7109              1303.0406
 Red. masses --      1.2880                 1.1807                 2.3828
 Frc consts  --      1.2412                 1.1625                 2.3838
 IR Inten    --     69.1316                 0.2868               263.3649

                     73                     74                     75
                      A                      A                      A
 Frequencies --   1314.1467              1330.4698              1330.8198
 Red. masses --      1.5380                 1.6567                 1.2002
 Frc consts  --      1.5649                 1.7279                 1.2524
 IR Inten    --    319.9359               132.5251                23.7550

                     76                     77                     78
                      A                      A                      A
 Frequencies --   1339.9332              1364.5301              1400.4460
 Red. masses --      2.1051                 1.9216                 4.9173
 Frc consts  --      2.2268                 2.1080                 5.6821
 IR Inten    --    161.4568               372.4607               264.4269

                     79                     80                     81
                      A                      A                      A
 Frequencies --   1421.6061              1422.2643              1429.2963
 Red. masses --      1.3399                 1.3158                 1.5823
 Frc consts  --      1.5954                 1.5683                 1.9046
 IR Inten    --     11.3888                14.8501                 4.8009

                     82                     83                     84
                      A                      A                      A
 Frequencies --   1462.3041              1478.2552              1484.0102
 Red. masses --      3.2418                 1.3019                 4.1615
 Frc consts  --      4.0843                 1.6762                 5.3998
 IR Inten    --    394.8566                50.1475                46.4848

                     85                     86                     87
                      A                      A                      A
 Frequencies --   1504.9163              1509.8559              1517.2009
 Red. masses --      1.0600                 1.0380                 1.0464
 Frc consts  --      1.4145                 1.3941                 1.4192
 IR Inten    --      9.5531                 8.6081                17.4189

                     88                     89                     90
                      A                      A                      A
 Frequencies --   1519.9756              1520.7358              1521.7640
 Red. masses --      1.6560                 1.1641                 1.5091
 Frc consts  --      2.2542                 1.5862                 2.0590
 IR Inten    --    260.4643                94.1705               187.7025

                     91                     92                     93
                      A                      A                      A
 Frequencies --   1535.1949              1621.0557              1641.8699
 Red. masses --      1.0949                 2.8192                 3.2014
 Frc consts  --      1.5203                 4.3648                 5.0848
 IR Inten    --      7.9738                 6.2897               102.6737

                     94                     95                     96
                      A                      A                      A
 Frequencies --   1666.1769              1678.1087              1708.3296
 Red. masses --      6.1962                 2.7011                 3.0111
 Frc consts  --     10.1348                 4.4816                 5.1775
 IR Inten    --   1006.6535               460.3594               495.7925

                     97                     98                     99
                      A                      A                      A
 Frequencies --   1782.9224              3027.9988              3059.9227
 Red. masses --      2.5371                 1.0709                 1.0373
 Frc consts  --      4.7517                 5.7849                 5.7224
 IR Inten    --    422.8948                73.9767                43.9264

                    100                    101                    102
                      A                      A                      A
 Frequencies --   3065.4799              3073.3783              3074.0316
 Red. masses --      1.0460                 1.0774                 1.0696
 Frc consts  --      5.7912                 5.9961                 5.9554
 IR Inten    --    268.8088               456.7819               373.9557

                    103                    104                    105
                      A                      A                      A
 Frequencies --   3074.9991              3091.8498              3105.7825
 Red. masses --      1.0653                 1.0929                 1.1010
 Frc consts  --      5.9349                 6.1556                 6.2573
 IR Inten    --    178.5562                41.7205                11.2110

                    106                    107                    108
                      A                      A                      A
 Frequencies --   3109.1648              3130.6731              3133.5292
 Red. masses --      1.1018                 1.1036                 1.0977
 Frc consts  --      6.2756                 6.3730                 6.3502
 IR Inten    --      5.8386                75.2468                49.5168

                    109                    110                    111
                      A                      A                      A
 Frequencies --   3134.2838              3152.3071              3217.2595
 Red. masses --      1.1015                 1.1025                 1.0939
 Frc consts  --      6.3755                 6.4549                 6.6709
 IR Inten    --     42.5989                41.9944                16.1259

                    112                    113                    114
                      A                      A                      A
 Frequencies --   3250.2139              3254.1917              3284.8061
 Red. masses --      1.0894                 1.0928                 1.0913
 Frc consts  --      6.7802                 6.8184                 6.9374
 IR Inten    --   1423.9567                10.9336                21.5728

 - Thermochemistry -
 -------------------
 Temperature   298.150 Kelvin.  Pressure   1.00000 Atm.
 Atom     1 has atomic number  6 and mass  12.00000

 Molecular mass:   353.08798 amu.
 Principal axes and moments of inertia in atomic units:
                           1         2         3
     Eigenvalues --  6557.01716********************
           X            0.99988  -0.01577  -0.00069
           Y            0.01577   0.99987  -0.00343
           Z            0.00074   0.00342   0.99999
 This molecule is an asymmetric top.
 Rotational symmetry number  1.
 Warning -- assumption of classical behavior for rotation
           may cause significant error
 Rotational temperatures (Kelvin)      0.01321     0.00551     0.00396
 Rotational constants (GHZ):           0.27524     0.11483     0.08256
 Zero-point vibrational energy     805868.7 (Joules/Mol)
                                  192.60723 (Kcal/Mol)
 Warning -- explicit consideration of  36 degrees of freedom as
           vibrations may cause significant error
 Vibrational temperatures:     21.37    26.60    37.57    54.98    68.40
          (Kelvin)             75.22    77.45    88.67    98.41   108.39
                              124.90   151.97   168.28   179.29   225.12
                              236.69   276.77   287.83   333.07   342.22
                              344.37   354.85   380.58   435.74   468.02
                              486.37   500.87   514.14   642.92   652.63
                              695.65   746.79   754.21   838.38   844.43
                              862.57   938.86   948.47   953.26  1024.63
                             1031.77  1088.35  1106.00  1139.59  1168.76
                             1187.20  1217.55  1238.70  1282.49  1296.37
                             1326.78  1330.39  1342.28  1386.65  1398.07
                             1449.07  1475.41  1513.48  1557.33  1596.65
                             1600.46  1628.23  1655.55  1667.79  1675.74
                             1696.88  1709.81  1731.59  1839.40  1840.03
                             1859.92  1874.78  1890.76  1914.25  1914.75
                             1927.86  1963.25  2014.93  2045.37  2046.32
                             2056.44  2103.93  2126.88  2135.16  2165.24
                             2172.34  2182.91  2186.90  2188.00  2189.48
                             2208.80  2332.33  2362.28  2397.25  2414.42
                             2457.90  2565.22  4356.61  4402.54  4410.54
                             4421.90  4422.84  4424.23  4448.48  4468.52
                             4473.39  4504.33  4508.44  4509.53  4535.46
                             4628.91  4676.33  4682.05  4726.10

 Zero-point correction=                           0.306939 (Hartree/Particle)
 Thermal correction to Energy=                    0.331503
 Thermal correction to Enthalpy=                  0.332448
 Thermal correction to Gibbs Free Energy=         0.247024
 Sum of electronic and zero-point Energies=          -1638.411534
 Sum of electronic and thermal Energies=             -1638.386969
 Sum of electronic and thermal Enthalpies=           -1638.386025
 Sum of electronic and thermal Free Energies=        -1638.471449

                     E (Thermal)             CV                S
                      KCal/Mol        Cal/Mol-Kelvin    Cal/Mol-Kelvin
 Total                  208.022             85.599            179.789
 Electronic               0.000              0.000              0.000
 Translational            0.889              2.981             43.478
 Rotational               0.889              2.981             36.064
 Vibrational            206.244             79.637            100.247
 Vibration     1          0.593              1.986              7.225
 Vibration     2          0.593              1.986              6.790
 Vibration     3          0.593              1.985              6.105
 Vibration     4          0.594              1.982              5.350
 Vibration     5          0.595              1.979              4.917
 Vibration     6          0.596              1.977              4.729
 Vibration     7          0.596              1.976              4.671
 Vibration     8          0.597              1.973              4.404
 Vibration     9          0.598              1.969              4.199
 Vibration    10          0.599              1.965              4.009
 Vibration    11          0.601              1.958              3.731
 Vibration    12          0.605              1.945              3.348
 Vibration    13          0.608              1.935              3.150
 Vibration    14          0.610              1.928              3.028
 Vibration    15          0.620              1.895              2.592
 Vibration    16          0.623              1.886              2.497
 Vibration    17          0.634              1.850              2.205
 Vibration    18          0.638              1.840              2.133
 Vibration    19          0.653              1.793              1.867
 Vibration    20          0.656              1.783              1.819
 Vibration    21          0.657              1.780              1.808
 Vibration    22          0.661              1.768              1.755
 Vibration    23          0.671              1.738              1.632
 Vibration    24          0.694              1.668              1.401
 Vibration    25          0.709              1.625              1.283
 Vibration    26          0.718              1.600              1.221
 Vibration    27          0.726              1.579              1.175
 Vibration    28          0.733              1.560              1.134
 Vibration    29          0.806              1.368              0.805
 Vibration    30          0.812              1.353              0.785
 Vibration    31          0.840              1.287              0.701
 Vibration    32          0.874              1.208              0.612
 Vibration    33          0.879              1.196              0.600
 Vibration    34          0.940              1.069              0.480
 Vibration    35          0.944              1.060              0.473
 Vibration    36          0.958              1.033              0.450

 Normal termination of Gaussian 09 at Thu Nov 14 23:48:21 2019.
