 Gaussian 09, Revision E.01,

 ----------------------------------------------------------------------
 # M062X/6-311+G* SCF=Tight INT(grid=ultrafine) OPT IOP(2/17=4) Empiric
 alDispersion=GD3 SCRF=(SMD,Solvent=h2o) maxdisk=2684354560
 ----------------------------------------------------------------------

 -------------------------------------------
 NM3_c2_carboxy.M062X_6-311pGd_opt_water_GD3
 -------------------------------------------
 Symbolic Z-matrix:
 Charge = -1 Multiplicity = 1

 SCF Done:  E(RM062X) =  -1638.74941511     A.U. after   15 cycles
 Optimization completed.
    -- Stationary point found.
 Normal termination of Gaussian 09 at Thu Nov 14 22:08:07 2019.
 Gaussian 09:  ES64L-G09RevE.01 30-Nov-2015

 ----------------------------------------------------------------------
 # M062X/6-311+G* SCF=Tight INT(grid=ultrafine) SCRF=(SMD,Solvent=h2o)
 EmpiricalDispersion=GD3 Freq=Noraman maxdisk=2684354560 geom=check gue
 ss=read IOP(2/17=4)
 ----------------------------------------------------------------------

 -------------------------------------------
 NM3_c2_carboxy.M062X_6-311pGd_opt_water_GD3
 -------------------------------------------
 Structure from the checkpoint file:  "NM3_c2_carboxy.M062X_6-311pGd_opt_water_GD3.chk"
 Charge = -1 Multiplicity = 1

                         Standard orientation:
 ---------------------------------------------------------------------
 Center     Atomic      Atomic             Coordinates (Angstroms)
 Number     Number       Type             X           Y           Z
 ---------------------------------------------------------------------
      1          6           0        0.913309   -0.638371   -0.052702
      2          7           0       -0.475028   -0.575439   -0.004182
      3          6           0       -1.335777   -1.636943    0.208478
      4          8           0       -0.948957   -2.798839    0.389199
      5          7           0       -2.634760   -1.288363    0.216796
      6          6           0       -3.676774   -2.283790    0.420115
      7          6           0       -5.045958   -1.624021    0.378478
      8          6           0       -6.155953   -2.644548    0.597397
      9          6           0        1.618714    0.546891    0.203408
     10          6           0        3.000386    0.556367    0.129648
     11          6           0        3.732117   -0.586802   -0.182437
     12          6           0        3.011838   -1.741149   -0.438099
     13          6           0        1.625888   -1.794706   -0.389926
     14          1           0       -0.876968    0.368678    0.080372
     15          1           0       -2.907017   -0.335015   -0.039366
     16          1           0       -3.527956   -2.777930    1.384864
     17          1           0       -3.610439   -3.057392   -0.351995
     18          1           0       -5.178050   -1.127145   -0.587894
     19          1           0       -5.094394   -0.844556    1.145396
     20          1           0       -6.134453   -3.419210   -0.173624
     21          1           0       -7.139020   -2.170922    0.567453
     22          1           0       -6.051072   -3.136410    1.568030
     23          1           0        1.070698    1.447427    0.456470
     24         17           0        3.882543   -3.197430   -0.860486
     25          1           0        1.109834   -2.713522   -0.622732
     26          6           0        3.749023    1.813126    0.460636
     27          1           0        4.813733   -0.575791   -0.228841
     28          9           0        4.184050    1.814865    1.736541
     29          9           0        4.839355    1.971333   -0.307128
     30          9           0        3.002580    2.915857    0.312280
     31          8           0       -1.514004    2.069179    0.276737
     32          8           0       -3.444287    1.378046   -0.594655
     33          6           0       -2.647438    2.284977   -0.242882
     34          6           0       -3.041028    3.743703   -0.445083
     35          6           0       -4.431684    3.962298   -1.019357
     36          1           0       -2.278778    4.190035   -1.091423
     37          1           0       -2.935628    4.241182    0.523557
     38          1           0       -4.533526    3.497230   -2.001803
     39          1           0       -4.637312    5.029101   -1.130938
     40          1           0       -5.200246    3.539393   -0.369094
 ---------------------------------------------------------------------

 SCF Done:  E(RM062X) =  -1638.74941511     A.U. after    2 cycles

 The electronic state is 1-A.
 Alpha  occ. eigenvalues -- -102.68341 -25.28541 -25.28404 -25.28118 -19.59341
 Alpha  occ. eigenvalues --  -19.57931 -19.57619 -14.77199 -14.75487 -10.80925
 Alpha  occ. eigenvalues --  -10.67533 -10.63872 -10.61950 -10.61032 -10.58305
 Alpha  occ. eigenvalues --  -10.56401 -10.56173 -10.56102 -10.55952 -10.52690
 Alpha  occ. eigenvalues --  -10.52460 -10.51549 -10.51345  -9.82613  -7.55119
 Alpha  occ. eigenvalues --   -7.54458  -7.54443  -1.47738  -1.38444  -1.37995
 Alpha  occ. eigenvalues --   -1.17831  -1.16689  -1.06842  -1.05825  -1.02686
 Alpha  occ. eigenvalues --   -1.00326  -0.95537  -0.89284  -0.87304  -0.85741
 Alpha  occ. eigenvalues --   -0.84503  -0.81776  -0.77800  -0.74184  -0.72247
 Alpha  occ. eigenvalues --   -0.71913  -0.70090  -0.69498  -0.68214  -0.67982
 Alpha  occ. eigenvalues --   -0.64454  -0.62665  -0.59613  -0.59399  -0.58480
 Alpha  occ. eigenvalues --   -0.58232  -0.57734  -0.55711  -0.55301  -0.54038
 Alpha  occ. eigenvalues --   -0.53905  -0.53422  -0.53072  -0.52810  -0.52078
 Alpha  occ. eigenvalues --   -0.51866  -0.51142  -0.50784  -0.50377  -0.49162
 Alpha  occ. eigenvalues --   -0.48370  -0.46480  -0.46307  -0.45563  -0.45428
 Alpha  occ. eigenvalues --   -0.44309  -0.43698  -0.42168  -0.41748  -0.41488
 Alpha  occ. eigenvalues --   -0.39684  -0.39474  -0.39020  -0.38798  -0.37878
 Alpha  occ. eigenvalues --   -0.35971  -0.33982  -0.32994  -0.32528  -0.32466
 Alpha  occ. eigenvalues --   -0.31643  -0.27699
 Alpha virt. eigenvalues --   -0.00879   0.00385   0.01235   0.02159   0.02620
 Alpha virt. eigenvalues --    0.03164   0.03340   0.03456   0.04278   0.04434
 Alpha virt. eigenvalues --    0.04889   0.05237   0.05445   0.05509   0.06196

 Mulliken charges:
               1
     1  C   -1.009854
     2  N   -0.361097
     3  C    0.161276
     4  O   -0.533237
     5  N   -0.451047
     6  C   -0.535615
     7  C   -0.092035
     8  C   -1.153035
     9  C   -0.330261
    10  C   -0.481556
    11  C    0.018190
    12  C    0.584303
    13  C   -0.639840
    14  H    0.461018
    15  H    0.471667
    16  H    0.268865
    17  H    0.273895
    18  H    0.272190
    19  H    0.275582
    20  H    0.269027
    21  H    0.279782
    22  H    0.269372
    23  H    0.344645
    24  Cl   0.389974
    25  H    0.328154
    26  C    0.810337
    27  H    0.339060
    28  F   -0.071785
    29  F   -0.109126
    30  F   -0.131413
    31  O   -0.619919
    32  O   -0.571475
    33  C    0.194461
    34  C   -0.283383
    35  C   -1.025542
    36  H    0.287355
    37  H    0.285299
    38  H    0.268382
    39  H    0.276728
    40  H    0.270661
 Sum of Mulliken charges =  -1.00000

 Dipole moment (field-independent basis, Debye):
    X=              2.7392    Y=             -0.1348    Z=             -0.6196  Tot=              2.8116
 Quadrupole moment (field-independent basis, Debye-Ang):
   XX=           -172.4656   YY=           -172.1537   ZZ=           -149.6925
   XY=              5.1546   XZ=             -5.6540   YZ=              0.4347

  Exact polarizability: 352.195  -0.220 308.031  -1.843  14.680 204.549
 Approx polarizability: 282.382  -3.201 261.653  -1.056  13.292 182.902

                      1                      2                      3
                      A                      A                      A
 Frequencies --     11.4283                17.5521                22.2096
 Red. masses --      6.7788                 4.7887                 5.7968
 Frc consts  --      0.0005                 0.0009                 0.0017
 IR Inten    --      0.2375                 4.4866                 0.7382

                      4                      5                      6
                      A                      A                      A
 Frequencies --     28.1459                40.1054                46.1363
 Red. masses --     15.2483                 2.5969                 7.4794
 Frc consts  --      0.0071                 0.0025                 0.0094
 IR Inten    --      0.0324                 1.0381                 7.8827

                      7                      8                      9
                      A                      A                      A
 Frequencies --     51.9208                60.7253                63.1514
 Red. masses --      2.7696                 2.6460                 4.3581
 Frc consts  --      0.0044                 0.0057                 0.0102
 IR Inten    --      1.6937                 4.9603                 0.1735

                     10                     11                     12
                      A                      A                      A
 Frequencies --     67.8720                79.7441               102.5405
 Red. masses --      4.9090                 4.7668                 5.1478
 Frc consts  --      0.0133                 0.0179                 0.0319
 IR Inten    --      4.4490                11.6432                18.2797

                     13                     14                     15
                      A                      A                      A
 Frequencies --    114.9509               122.1473               136.8263
 Red. masses --      7.8403                 8.5289                12.0325
 Frc consts  --      0.0610                 0.0750                 0.1327
 IR Inten    --      3.2906                18.8454                 3.5853

                     16                     17                     18
                      A                      A                      A
 Frequencies --    157.5253               163.8742               197.1219
 Red. masses --      3.6920                 3.6841                 5.4209
 Frc consts  --      0.0540                 0.0583                 0.1241
 IR Inten    --     17.0381                14.1096                 0.6427

                     19                     20                     21
                      A                      A                      A
 Frequencies --    230.5153               239.7475               241.9549
 Red. masses --      7.2741                 1.7006                 1.7064
 Frc consts  --      0.2277                 0.0576                 0.0589
 IR Inten    --      4.9364                 1.4357                 0.8578

                     22                     23                     24
                      A                      A                      A
 Frequencies --    243.3447               263.4194               301.1920
 Red. masses --      1.2310                 5.5169                 3.9212
 Frc consts  --      0.0429                 0.2255                 0.2096
 IR Inten    --      2.9473                 5.3889                11.3059

                     25                     26                     27
                      A                      A                      A
 Frequencies --    326.9963               331.8795               339.8203
 Red. masses --     10.3118                 6.7922                 5.8756
 Frc consts  --      0.6496                 0.4408                 0.3998
 IR Inten    --      2.9317                 1.2632                10.2082

                     28                     29                     30
                      A                      A                      A
 Frequencies --    366.1545               432.2354               468.6050
 Red. masses --      7.5225                 8.0269                 5.6623
 Frc consts  --      0.5942                 0.8836                 0.7326
 IR Inten    --     30.2884                 7.2893                 7.1726

                     31                     32                     33
                      A                      A                      A
 Frequencies --    475.5873               515.8699               519.1063
 Red. masses --      5.5392                10.6835                 5.6135
 Frc consts  --      0.7382                 1.6751                 0.8912
 IR Inten    --      4.0217                 3.8723                37.4041

                     34                     35                     36
                      A                      A                      A
 Frequencies --    579.7046               582.0270               599.2151
 Red. masses --      5.5465                 1.8923                 9.8759
 Frc consts  --      1.0982                 0.3777                 2.0893
 IR Inten    --      1.5317                 1.3579                 1.1012

                     37                     38                     39
                      A                      A                      A
 Frequencies --    641.2783               651.6628               652.8756
 Red. masses --      2.9205                 4.6491                 3.9706
 Frc consts  --      0.7076                 1.1632                 0.9972
 IR Inten    --     32.8667                22.7331                83.9806

                     40                     41                     42
                      A                      A                      A
 Frequencies --    672.2799               706.3950               716.1352
 Red. masses --      1.5902                 2.3821                10.3342
 Frc consts  --      0.4234                 0.7003                 3.1226
 IR Inten    --    130.9651                38.0352                81.8587

                     43                     44                     45
                      A                      A                      A
 Frequencies --    757.7030               760.5093               789.2562
 Red. masses --      1.5541                 1.4287                 5.7084
 Frc consts  --      0.5257                 0.4869                 2.0951
 IR Inten    --     73.2780                22.0611                32.3493

                     46                     47                     48
                      A                      A                      A
 Frequencies --    814.1387               823.2774               856.0760
 Red. masses --      1.5922                 1.5203                 9.4214
 Frc consts  --      0.6218                 0.6071                 4.0681
 IR Inten    --    109.7194               106.4739                60.9548

                     49                     50                     51
                      A                      A                      A
 Frequencies --    876.1527               887.7635               902.7846
 Red. masses --      1.5691                 3.8800                 1.5910
 Frc consts  --      0.7097                 1.8017                 0.7640
 IR Inten    --     77.0721                37.4816                41.6961

                     52                     53                     54
                      A                      A                      A
 Frequencies --    907.0694               915.5311               925.3978
 Red. masses --      1.1580                 1.4158                 1.7644
 Frc consts  --      0.5614                 0.6992                 0.8902
 IR Inten    --      3.4653                27.6227                 0.9305

                     55                     56                     57
                      A                      A                      A
 Frequencies --    968.0881              1010.7360              1025.2268
 Red. masses --      4.9975                 5.8744                 1.6624
 Frc consts  --      2.7595                 3.5358                 1.0295
 IR Inten    --     62.3868                21.9418                15.5926

                     58                     59                     60
                      A                      A                      A
 Frequencies --   1051.0136              1081.7224              1109.9943
 Red. masses --      4.1599                 2.6094                 1.9205
 Frc consts  --      2.7074                 1.7990                 1.3941
 IR Inten    --     40.8452                34.9861                 8.2513

                     61                     62                     63
                      A                      A                      A
 Frequencies --   1110.6622              1134.4981              1142.4021
 Red. masses --      2.1554                 3.2241                 2.4330
 Frc consts  --      1.5665                 2.4449                 1.8708
 IR Inten    --     13.1756               197.1533               168.8919

                     64                     65                     66
                      A                      A                      A
 Frequencies --   1144.5919              1159.0339              1177.9943
 Red. masses --      3.0566                 2.2406                 3.5925
 Frc consts  --      2.3594                 1.7734                 2.9372
 IR Inten    --    202.3741                48.6813                59.3626

                     67                     68                     69
                      A                      A                      A
 Frequencies --   1180.9693              1188.2920              1276.2990
 Red. masses --      1.6769                 5.2728                 2.2231
 Frc consts  --      1.3780                 4.3867                 2.1336
 IR Inten    --      3.1338               394.7488               150.5041

                     70                     71                     72
                      A                      A                      A
 Frequencies --   1284.8606              1293.1976              1294.3391
 Red. masses --      1.1877                 2.1260                 1.1695
 Frc consts  --      1.1552                 2.0948                 1.1544
 IR Inten    --      1.1346                90.9169                 0.7027

                     73                     74                     75
                      A                      A                      A
 Frequencies --   1310.6022              1330.0653              1332.9999
 Red. masses --      1.7493                 1.7955                 1.0705
 Frc consts  --      1.7704                 1.8715                 1.1207
 IR Inten    --    589.4238               149.3308                 1.8973

                     76                     77                     78
                      A                      A                      A
 Frequencies --   1344.2954              1354.9579              1383.5429
 Red. masses --      1.9842                 2.0337                 5.1742
 Frc consts  --      2.1127                 2.1999                 5.8355
 IR Inten    --    122.7407               215.6223               677.0839

                     79                     80                     81
                      A                      A                      A
 Frequencies --   1415.2434              1416.8503              1426.3777
 Red. masses --      1.2657                 1.3197                 1.6737
 Frc consts  --      1.4936                 1.5609                 2.0063
 IR Inten    --      3.3362                34.6881                29.6029

                     82                     83                     84
                      A                      A                      A
 Frequencies --   1447.7804              1462.6986              1477.8928
 Red. masses --      1.6369                 2.0320                 3.5835
 Frc consts  --      2.0215                 2.5614                 4.6116
 IR Inten    --    244.0722               247.7503                95.2714

                     85                     86                     87
                      A                      A                      A
 Frequencies --   1484.3541              1498.3785              1500.4417
 Red. masses --      1.0604                 1.0387                 1.0383
 Frc consts  --      1.3766                 1.3740                 1.3773
 IR Inten    --      6.0035                14.7174                13.4847

                     88                     89                     90
                      A                      A                      A
 Frequencies --   1505.5861              1508.1788              1513.8894
 Red. masses --      1.0952                 1.0804                 4.1533
 Frc consts  --      1.4626                 1.4479                 5.6083
 IR Inten    --     65.3745                 2.5118               267.3869

                     91                     92                     93
                      A                      A                      A
 Frequencies --   1528.4540              1539.7137              1601.8418
 Red. masses --      1.1141                 6.6703                 3.1204
 Frc consts  --      1.5334                 9.3169                 4.7173
 IR Inten    --     67.1285              1041.4848               517.0470

                     94                     95                     96
                      A                      A                      A
 Frequencies --   1618.7272              1666.3061              1682.1976
 Red. masses --      1.8252                 6.3071                 4.7678
 Frc consts  --      2.8179                10.3179                 7.9492
 IR Inten    --   1364.0938               346.3175                29.9785

                     97                     98                     99
                      A                      A                      A
 Frequencies --   1716.6486              3062.6584              3067.1746
 Red. masses --      2.0166                 1.0593                 1.0390
 Frc consts  --      3.5014                 5.8539                 5.7589
 IR Inten    --    533.4380                18.7912                24.8277

                    100                    101                    102
                      A                      A                      A
 Frequencies --   3070.9518              3075.6738              3079.6146
 Red. masses --      1.0584                 1.0369                 1.0624
 Frc consts  --      5.8810                 5.7792                 5.9364
 IR Inten    --    114.3779                46.3244                17.5114

                    103                    104                    105
                      A                      A                      A
 Frequencies --   3093.4201              3112.7878              3113.0151
 Red. masses --      1.1032                 1.1061                 1.1011
 Frc consts  --      6.2198                 6.3145                 6.2867
 IR Inten    --      6.9876                41.9858                 7.6164

                    106                    107                    108
                      A                      A                      A
 Frequencies --   3136.0722              3143.6332              3143.8773
 Red. masses --      1.1041                 1.1026                 1.1024
 Frc consts  --      6.3980                 6.4198                 6.4199
 IR Inten    --     97.0294                50.3141                46.3756

                    109                    110                    111
                      A                      A                      A
 Frequencies --   3149.4137              3229.5199              3246.0951
 Red. masses --      1.1036                 1.0930                 1.0928
 Frc consts  --      6.4494                 6.7167                 6.7847
 IR Inten    --     55.9364                 0.9989               161.5722

                    112                    113                    114
                      A                      A                      A
 Frequencies --   3247.8975              3280.0203              3365.6025
 Red. masses --      1.0888                 1.0930                 1.0853
 Frc consts  --      6.7668                 6.9283                 7.2433
 IR Inten    --   1001.4034                10.4570              1239.0335

 - Thermochemistry -
 -------------------
 Temperature   298.150 Kelvin.  Pressure   1.00000 Atm.
 Atom     1 has atomic number  6 and mass  12.00000

 Molecular mass:   353.08798 amu.
 Principal axes and moments of inertia in atomic units:
                           1         2         3
     Eigenvalues --  6973.35825********************
           X            0.99999  -0.00450  -0.00147
           Y            0.00448   0.99985  -0.01702
           Z            0.00155   0.01701   0.99985
 This molecule is an asymmetric top.
 Rotational symmetry number  1.
 Warning -- assumption of classical behavior for rotation
           may cause significant error
 Rotational temperatures (Kelvin)      0.01242     0.00568     0.00408
 Rotational constants (GHZ):           0.25881     0.11834     0.08510
 Zero-point vibrational energy     802197.9 (Joules/Mol)
                                  191.72989 (Kcal/Mol)
 Warning -- explicit consideration of  36 degrees of freedom as
           vibrations may cause significant error
 Vibrational temperatures:     16.44    25.25    31.95    40.50    57.70
          (Kelvin)             66.38    74.70    87.37    90.86    97.65
                              114.73   147.53   165.39   175.74   196.86
                              226.64   235.78   283.61   331.66   344.94
                              348.12   350.12   379.00   433.35   470.47
                              477.50   488.93   526.81   621.89   674.22
                              684.26   742.22   746.88   834.06   837.41
                              862.14   922.66   937.60   939.34   967.26
                             1016.34  1030.36  1090.16  1094.20  1135.56
                             1171.36  1184.51  1231.70  1260.59  1277.29
                             1298.90  1305.07  1317.24  1331.44  1392.86
                             1454.22  1475.07  1512.17  1556.36  1597.03
                             1597.99  1632.29  1643.66  1646.81  1667.59
                             1694.87  1699.15  1709.69  1836.31  1848.63
                             1860.62  1862.26  1885.66  1913.66  1917.89
                             1934.14  1949.48  1990.61  2036.22  2038.53
                             2052.24  2083.03  2104.49  2126.36  2135.65
                             2155.83  2158.80  2166.20  2169.93  2178.15
                             2199.10  2215.30  2304.69  2328.98  2397.44
                             2420.30  2469.87  4406.48  4412.97  4418.41
                             4425.20  4430.87  4450.74  4478.60  4478.93
                             4512.10  4522.98  4523.33  4531.30  4646.55
                             4670.40  4672.99  4719.21  4842.35

 Zero-point correction=                           0.305541 (Hartree/Particle)
 Thermal correction to Energy=                    0.330469
 Thermal correction to Enthalpy=                  0.331413
 Thermal correction to Gibbs Free Energy=         0.244102
 Sum of electronic and zero-point Energies=          -1638.443874
 Sum of electronic and thermal Energies=             -1638.418946
 Sum of electronic and thermal Enthalpies=           -1638.418002
 Sum of electronic and thermal Free Energies=        -1638.505313

                     E (Thermal)             CV                S
                      KCal/Mol        Cal/Mol-Kelvin    Cal/Mol-Kelvin
 Total                  207.373             86.452            183.763
 Electronic               0.000              0.000              0.000
 Translational            0.889              2.981             43.478
 Rotational               0.889              2.981             36.065
 Vibrational            205.595             80.490            104.219
 Vibration     1          0.593              1.987              7.746
 Vibration     2          0.593              1.986              6.893
 Vibration     3          0.593              1.985              6.426
 Vibration     4          0.593              1.984              5.956
 Vibration     5          0.594              1.981              5.254
 Vibration     6          0.595              1.979              4.976
 Vibration     7          0.596              1.977              4.743
 Vibration     8          0.597              1.973              4.433
 Vibration     9          0.597              1.972              4.356
 Vibration    10          0.598              1.970              4.214
 Vibration    11          0.600              1.963              3.897
 Vibration    12          0.605              1.947              3.405
 Vibration    13          0.608              1.937              3.184
 Vibration    14          0.610              1.931              3.066
 Vibration    15          0.614              1.917              2.848
 Vibration    16          0.621              1.894              2.579
 Vibration    17          0.623              1.887              2.505
 Vibration    18          0.637              1.844              2.160
 Vibration    19          0.652              1.794              1.875
 Vibration    20          0.657              1.780              1.805
 Vibration    21          0.658              1.776              1.788
 Vibration    22          0.659              1.774              1.778
 Vibration    23          0.670              1.740              1.639
 Vibration    24          0.693              1.671              1.410
 Vibration    25          0.711              1.622              1.275
 Vibration    26          0.714              1.612              1.251
 Vibration    27          0.720              1.596              1.213
 Vibration    28          0.739              1.542              1.096
 Vibration    29          0.793              1.400              0.851
 Vibration    30          0.826              1.320              0.741
 Vibration    31          0.832              1.304              0.722
 Vibration    32          0.871              1.215              0.620
 Vibration    33          0.874              1.208              0.612
 Vibration    34          0.936              1.075              0.486
 Vibration    35          0.939              1.070              0.482
 Vibration    36          0.957              1.033              0.451

 Optimization completed.
    -- Stationary point found.
 Normal termination of Gaussian 09 at Thu Nov 14 23:36:43 2019.
