 Gaussian 09, Revision E.01,

 ----------------------------------------------------------------------
 # M062X/6-311+G* SCF=Tight INT(grid=ultrafine) OPT IOP(2/17=4) Empiric
 alDispersion=GD3 maxdisk=2684354560
 ----------------------------------------------------------------------

 ----------------------------------
 NM3_carboxy.M062X_6-311pGd_opt_GD3
 ----------------------------------
 Symbolic Z-matrix:
 Charge = -1 Multiplicity = 1

 SCF Done:  E(RM062X) =  -1638.67840941     A.U. after   15 cycles
 SCF Done:  E(RM062X) =  -1638.67840939     A.U. after    9 cycles
 SCF Done:  E(RM062X) =  -1638.67840942     A.U. after    9 cycles
 Optimization completed.
    -- Stationary point found.
 Normal termination of Gaussian 09 at Thu Nov 14 22:15:16 2019.
 Gaussian 09:  ES64L-G09RevE.01 30-Nov-2015

 ----------------------------------------------------------------------
 # M062X/6-311+G* SCF=Tight INT(grid=ultrafine) EmpiricalDispersion=GD3
  Freq=Noraman maxdisk=2684354560 geom=check guess=read IOP(2/17=4)
 ----------------------------------------------------------------------

 ----------------------------------
 NM3_carboxy.M062X_6-311pGd_opt_GD3
 ----------------------------------
 Structure from the checkpoint file:  "NM3_carboxy.M062X_6-311pGd_opt_GD3.chk"
 Charge = -1 Multiplicity = 1

                         Standard orientation:
 ---------------------------------------------------------------------
 Center     Atomic      Atomic             Coordinates (Angstroms)
 Number     Number       Type             X           Y           Z
 ---------------------------------------------------------------------
      1          6           0       -0.898568    0.092665   -0.045456
      2          7           0        0.437035   -0.235888   -0.055387
      3          6           0        0.987421   -1.511191   -0.004538
      4          8           0        0.324891   -2.541862    0.049604
      5          7           0        2.340512   -1.491401   -0.030301
      6          6           0        3.091188   -2.719639    0.096264
      7          6           0        4.552822   -2.470071   -0.253940
      8          6           0        5.396726   -3.728553   -0.079233
      9          6           0       -1.954882   -0.832670   -0.022200
     10          6           0       -3.264189   -0.366530   -0.020395
     11          6           0       -3.583924    0.984876   -0.039151
     12          6           0       -2.520062    1.879351   -0.064327
     13          6           0       -1.203387    1.471293   -0.067778
     14          1           0        1.090769    0.571756   -0.082907
     15          1           0        2.857022   -0.600612    0.022024
     16          1           0        2.657873   -3.475267   -0.566187
     17          1           0        3.012801   -3.120625    1.116813
     18          1           0        4.939036   -1.658022    0.369058
     19          1           0        4.611207   -2.110443   -1.285635
     20          1           0        5.370948   -4.079313    0.956474
     21          1           0        6.441767   -3.549450   -0.342275
     22          1           0        5.028814   -4.542704   -0.710753
     23          1           0       -1.736603   -1.890396   -0.010152
     24         17           0       -2.877065    3.596034   -0.096327
     25          1           0       -0.389742    2.189846   -0.088092
     26          6           0       -4.368815   -1.377559    0.056872
     27          1           0       -4.607746    1.332135   -0.041548
     28          9           0       -4.512065   -1.880503    1.299229
     29          9           0       -5.566872   -0.861401   -0.277869
     30          9           0       -4.163423   -2.429283   -0.751356
     31          8           0        1.980296    2.049263   -0.098009
     32          8           0        3.874652    0.881073    0.128422
     33          6           0        3.227942    1.946652    0.028295
     34          6           0        4.006653    3.270274    0.059328
     35          6           0        5.513229    3.107280    0.203803
     36          1           0        3.592211    3.866521    0.878296
     37          1           0        3.752357    3.813028   -0.856414
     38          1           0        5.757499    2.572960    1.123403
     39          1           0        6.019970    4.077187    0.219978
     40          1           0        5.918697    2.517646   -0.620126
 ---------------------------------------------------------------------

 SCF Done:  E(RM062X) =  -1638.67840942     A.U. after    1 cycles

 The electronic state is 1-A.
 Alpha  occ. eigenvalues -- -102.58657 -25.19113 -25.18690 -25.18463 -19.46858
 Alpha  occ. eigenvalues --  -19.44530 -19.44272 -14.65253 -14.63365 -10.71182
 Alpha  occ. eigenvalues --  -10.55225 -10.51780 -10.50741 -10.50300 -10.48054
 Alpha  occ. eigenvalues --  -10.46408 -10.46143 -10.45383 -10.45039 -10.44189
 Alpha  occ. eigenvalues --  -10.43559 -10.41769 -10.41718  -9.72930  -7.45431
 Alpha  occ. eigenvalues --   -7.44779  -7.44770  -1.38068  -1.28802  -1.28316
 Alpha  occ. eigenvalues --   -1.05719  -1.03591  -0.94441  -0.93729  -0.91354
 Alpha  occ. eigenvalues --   -0.89731  -0.85324  -0.79172  -0.77667  -0.75065
 Alpha  occ. eigenvalues --   -0.74107  -0.71725  -0.68170  -0.63948  -0.62262
 Alpha  occ. eigenvalues --   -0.61430  -0.60386  -0.60177  -0.57995  -0.55852
 Alpha  occ. eigenvalues --   -0.54562  -0.51404  -0.49468  -0.48696  -0.48511
 Alpha  occ. eigenvalues --   -0.47920  -0.46192  -0.45257  -0.44852  -0.44350
 Alpha  occ. eigenvalues --   -0.43071  -0.42984  -0.42450  -0.41689  -0.41275
 Alpha  occ. eigenvalues --   -0.41071  -0.40826  -0.39721  -0.38797  -0.38334
 Alpha  occ. eigenvalues --   -0.38010  -0.36835  -0.35892  -0.35296  -0.34383
 Alpha  occ. eigenvalues --   -0.33869  -0.33036  -0.32786  -0.31897  -0.31066
 Alpha  occ. eigenvalues --   -0.30621  -0.29857  -0.29127  -0.28896  -0.27377
 Alpha  occ. eigenvalues --   -0.23185  -0.21548  -0.20427  -0.20006  -0.19515
 Alpha  occ. eigenvalues --   -0.19321  -0.16183
 Alpha virt. eigenvalues --    0.09346   0.09425   0.09754   0.10412   0.11023
 Alpha virt. eigenvalues --    0.11150   0.11699   0.11962   0.12244   0.12805
 Alpha virt. eigenvalues --    0.13085   0.13356   0.13817   0.13948   0.14691

 Mulliken charges:
               1
     1  C   -1.232064
     2  N   -0.437355
     3  C    0.001682
     4  O   -0.397282
     5  N   -0.346711
     6  C   -0.487946
     7  C   -0.123241
     8  C   -1.077376
     9  C   -0.160806
    10  C    0.200534
    11  C   -0.733837
    12  C    0.778101
    13  C   -0.645152
    14  H    0.468528
    15  H    0.450164
    16  H    0.235622
    17  H    0.239653
    18  H    0.282230
    19  H    0.261688
    20  H    0.247569
    21  H    0.252648
    22  H    0.245327
    23  H    0.331730
    24  Cl   0.372587
    25  H    0.366687
    26  C    0.788048
    27  H    0.278215
    28  F   -0.068223
    29  F   -0.146590
    30  F   -0.092441
    31  O   -0.474640
    32  O   -0.428466
    33  C    0.030060
    34  C   -0.200105
    35  C   -1.012684
    36  H    0.244812
    37  H    0.245202
    38  H    0.256600
    39  H    0.229839
    40  H    0.257392
 Sum of Mulliken charges =  -1.00000

 Dipole moment (field-independent basis, Debye):
    X=             -1.8095    Y=             -0.3691    Z=             -0.1445  Tot=              1.8524
 Quadrupole moment (field-independent basis, Debye-Ang):
   XX=           -200.5821   YY=           -175.6445   ZZ=           -148.5265
   XY=            -11.2091   XZ=             -0.2242   YZ=              0.9402

  Exact polarizability: 278.580 -21.386 242.129   1.060  -2.768 133.083
 Approx polarizability: 284.834 -17.425 277.013   1.212  -3.597 177.639

                      1                      2                      3
                      A                      A                      A
 Frequencies --     13.5524                17.6958                18.6309
 Red. masses --      6.2067                14.9374                 4.3425
 Frc consts  --      0.0007                 0.0028                 0.0009
 IR Inten    --      0.0193                 0.0683                 1.1413

                      4                      5                      6
                      A                      A                      A
 Frequencies --     33.6271                39.9353                43.4085
 Red. masses --      2.6713                 8.0789                 2.0025
 Frc consts  --      0.0018                 0.0076                 0.0022
 IR Inten    --      0.0841                 0.2142                 0.1365

                      7                      8                      9
                      A                      A                      A
 Frequencies --     49.3975                59.3505                62.6247
 Red. masses --      6.5323                 3.9527                 3.3400
 Frc consts  --      0.0094                 0.0082                 0.0077
 IR Inten    --      1.9850                 2.5879                 0.7837

                     10                     11                     12
                      A                      A                      A
 Frequencies --     69.6640                78.0140               104.9229
 Red. masses --      4.4978                 5.3145                 7.4266
 Frc consts  --      0.0129                 0.0191                 0.0482
 IR Inten    --      0.3310                 6.3750                 6.1744

                     13                     14                     15
                      A                      A                      A
 Frequencies --    114.7546               125.9971               157.4360
 Red. masses --      7.8060                 6.9925                12.1326
 Frc consts  --      0.0606                 0.0654                 0.1772
 IR Inten    --      3.4905                 1.5389                 7.6169

                     16                     17                     18
                      A                      A                      A
 Frequencies --    162.3199               190.3625               198.8959
 Red. masses --      3.5034                 3.9877                 5.3899
 Frc consts  --      0.0544                 0.0851                 0.1256
 IR Inten    --      9.6017                13.0066                 0.9876

                     19                     20                     21
                      A                      A                      A
 Frequencies --    219.3398               233.9180               235.6829
 Red. masses --      1.1239                 5.2606                 1.2753
 Frc consts  --      0.0319                 0.1696                 0.0417
 IR Inten    --      0.4056                 3.9978                 0.0344

                     22                     23                     24
                      A                      A                      A
 Frequencies --    242.5143               264.5754               298.6135
 Red. masses --      4.2527                 5.3224                 3.9888
 Frc consts  --      0.1474                 0.2195                 0.2096
 IR Inten    --      0.3613                 8.6297                12.1853

                     25                     26                     27
                      A                      A                      A
 Frequencies --    322.9515               339.1661               348.6274
 Red. masses --     11.5042                 7.8073                 5.4056
 Frc consts  --      0.7069                 0.5291                 0.3871
 IR Inten    --      0.8830                 1.2520                11.1300

                     28                     29                     30
                      A                      A                      A
 Frequencies --    359.5094               445.4081               453.2073
 Red. masses --      8.2947                 8.7712                 4.9500
 Frc consts  --      0.6316                 1.0252                 0.5990
 IR Inten    --     11.7130                 4.9723                 5.5378

                     31                     32                     33
                      A                      A                      A
 Frequencies --    484.4809               519.7210               522.7649
 Red. masses --      5.8625                11.1296                 5.7389
 Frc consts  --      0.8107                 1.7712                 0.9240
 IR Inten    --      1.0070                 1.9070                31.9090

                     34                     35                     36
                      A                      A                      A
 Frequencies --    581.7266               586.4812               599.4916
 Red. masses --      5.5825                 1.9487                10.4997
 Frc consts  --      1.1131                 0.3949                 2.2233
 IR Inten    --      0.3166                 0.3611                 0.3466

                     37                     38                     39
                      A                      A                      A
 Frequencies --    652.9529               660.7515               662.2000
 Red. masses --      5.7796                 5.3493                 4.9119
 Frc consts  --      1.4518                 1.3760                 1.2690
 IR Inten    --     47.4307                 0.5532                12.6904

                     40                     41                     42
                      A                      A                      A
 Frequencies --    713.7765               719.0964               752.0100
 Red. masses --     11.8093                 2.4575                 1.0967
 Frc consts  --      3.5449                 0.7487                 0.3654
 IR Inten    --     32.9062                11.9042                 2.8345

                     43                     44                     45
                      A                      A                      A
 Frequencies --    773.4197               791.0248               816.1080
 Red. masses --      2.1872                 6.8476                 1.7457
 Frc consts  --      0.7708                 2.5245                 0.6850
 IR Inten    --     44.5038                10.1181                 5.8611

                     46                     47                     48
                      A                      A                      A
 Frequencies --    825.3477               846.5373               854.5546
 Red. masses --      1.4645                 8.9806                 1.4968
 Frc consts  --      0.5878                 3.7918                 0.6440
 IR Inten    --     10.4572                45.2374                24.9984

                     49                     50                     51
                      A                      A                      A
 Frequencies --    889.4981               899.6550               921.0959
 Red. masses --      4.0375                 1.1815                 1.8099
 Frc consts  --      1.8821                 0.5634                 0.9047
 IR Inten    --     47.0002                 3.2352                 3.5976

                     52                     53                     54
                      A                      A                      A
 Frequencies --    926.5930               936.1884               971.8762
 Red. masses --      1.5339                 1.2340                 3.3228
 Frc consts  --      0.7759                 0.6372                 1.8492
 IR Inten    --     20.3268                29.3351                42.9348

                     55                     56                     57
                      A                      A                      A
 Frequencies --    977.9024              1006.3363              1020.1157
 Red. masses --      1.3193                 6.0322                 1.6891
 Frc consts  --      0.7433                 3.5993                 1.0356
 IR Inten    --     76.7279                56.8694                 3.6433

                     58                     59                     60
                      A                      A                      A
 Frequencies --   1051.1936              1082.1524              1109.2473
 Red. masses --      3.8120                 2.8191                 1.7984
 Frc consts  --      2.4818                 1.9451                 1.3037
 IR Inten    --     29.7255                22.5557                 1.0466

                     61                     62                     63
                      A                      A                      A
 Frequencies --   1110.5466              1132.6366              1149.1873
 Red. masses --      2.3456                 1.8085                 2.1348
 Frc consts  --      1.7044                 1.3669                 1.6611
 IR Inten    --      3.8556                48.3166                19.0795

                     64                     65                     66
                      A                      A                      A
 Frequencies --   1157.7843              1180.8358              1181.9661
 Red. masses --      2.0803                 1.7880                10.5846
 Frc consts  --      1.6429                 1.4689                 8.7124
 IR Inten    --     10.1171                30.1896               280.0482

                     67                     68                     69
                      A                      A                      A
 Frequencies --   1193.7616              1211.9520              1278.1959
 Red. masses --      3.6622                 6.6609                 1.6639
 Frc consts  --      3.0749                 5.7644                 1.6017
 IR Inten    --     11.6621               228.3143                39.6914

                     70                     71                     72
                      A                      A                      A
 Frequencies --   1278.8499              1290.6215              1308.1521
 Red. masses --      1.4025                 1.1842                 2.3594
 Frc consts  --      1.3514                 1.1622                 2.3788
 IR Inten    --     68.4872                 0.4771               195.6561

                     73                     74                     75
                      A                      A                      A
 Frequencies --   1314.2430              1328.7303              1330.7466
 Red. masses --      1.5291                 1.6894                 1.2310
 Frc consts  --      1.5561                 1.7573                 1.2844
 IR Inten    --    277.1074                86.0827                75.6771

                     76                     77                     78
                      A                      A                      A
 Frequencies --   1340.5568              1369.1904              1406.0924
 Red. masses --      2.1285                 1.9039                 4.9683
 Frc consts  --      2.2536                 2.1029                 5.7874
 IR Inten    --    144.8912               310.1053               218.0978

                     79                     80                     81
                      A                      A                      A
 Frequencies --   1417.8846              1421.0512              1430.4919
 Red. masses --      1.3139                 1.2893                 1.6596
 Frc consts  --      1.5563                 1.5339                 2.0009
 IR Inten    --     17.9373                 4.9920                 3.3663

                     82                     83                     84
                      A                      A                      A
 Frequencies --   1461.8087              1484.0051              1486.4545
 Red. masses --      4.4368                 3.9546                 1.2026
 Frc consts  --      5.5860                 5.1313                 1.5656
 IR Inten    --    394.3010                20.4632                28.8168

                     85                     86                     87
                      A                      A                      A
 Frequencies --   1508.8402              1509.5352              1520.8824
 Red. masses --      1.0493                 1.0514                 1.0537
 Frc consts  --      1.4074                 1.4115                 1.4360
 IR Inten    --      6.7792                 7.6004                20.3105

                     88                     89                     90
                      A                      A                      A
 Frequencies --   1521.2145              1523.2898              1525.4265
 Red. masses --      1.1410                 2.9774                 1.0960
 Frc consts  --      1.5556                 4.0706                 1.5026
 IR Inten    --     76.2096               342.8481                13.2543

                     91                     92                     93
                      A                      A                      A
 Frequencies --   1539.4183              1623.4538              1643.3824
 Red. masses --      1.0897                 2.6698                 3.5434
 Frc consts  --      1.5215                 4.1458                 5.6383
 IR Inten    --      5.1807                10.3089                68.7051

                     94                     95                     96
                      A                      A                      A
 Frequencies --   1668.5139              1688.2829              1715.5111
 Red. masses --      6.1538                 2.5072                 2.9724
 Frc consts  --     10.0937                 4.2105                 5.1540
 IR Inten    --    613.5126               495.5015               581.1050

                     97                     98                     99
                      A                      A                      A
 Frequencies --   1792.4206              3017.1898              3056.0249
 Red. masses --      2.6314                 1.0716                 1.0368
 Frc consts  --      4.9810                 5.7477                 5.7051
 IR Inten    --    367.3565                69.8793                48.3040

                    100                    101                    102
                      A                      A                      A
 Frequencies --   3057.2225              3062.1208              3071.5383
 Red. masses --      1.0712                 1.0665                 1.0599
 Frc consts  --      5.8990                 5.8922                 5.8918
 IR Inten    --    857.2273               243.0444                20.9160

                    103                    104                    105
                      A                      A                      A
 Frequencies --   3076.1245              3083.7947              3102.0912
 Red. masses --      1.0630                 1.0897                 1.1012
 Frc consts  --      5.9264                 6.1057                 6.2437
 IR Inten    --     14.6376                49.0817                11.1029

                    106                    107                    108
                      A                      A                      A
 Frequencies --   3105.7377              3129.2136              3129.7436
 Red. masses --      1.1020                 1.1024                 1.0966
 Frc consts  --      6.2628                 6.3599                 6.3288
 IR Inten    --      0.4796                56.9604                42.5012

                    109                    110                    111
                      A                      A                      A
 Frequencies --   3130.5002              3149.3114              3210.3866
 Red. masses --      1.1022                 1.1023                 1.0942
 Frc consts  --      6.3643                 6.4414                 6.6442
 IR Inten    --     50.7299                37.1809                10.3683

                    112                    113                    114
                      A                      A                      A
 Frequencies --   3242.9136              3258.1152              3276.1853
 Red. masses --      1.0893                 1.0923                 1.0913
 Frc consts  --      6.7497                 6.8315                 6.9012
 IR Inten    --   1349.5395                 0.8261                19.6203

 - Thermochemistry -
 -------------------
 Temperature   298.150 Kelvin.  Pressure   1.00000 Atm.
 Atom     1 has atomic number  6 and mass  12.00000

 Molecular mass:   353.08798 amu.
 Principal axes and moments of inertia in atomic units:
                           1         2         3
     Eigenvalues --  6511.62027********************
           X            0.99988  -0.01549   0.00051
           Y            0.01549   0.99988   0.00225
           Z           -0.00054  -0.00224   1.00000
 This molecule is an asymmetric top.
 Rotational symmetry number  1.
 Warning -- assumption of classical behavior for rotation
           may cause significant error
 Rotational temperatures (Kelvin)      0.01330     0.00550     0.00396
 Rotational constants (GHZ):           0.27716     0.11455     0.08251
 Zero-point vibrational energy     805460.8 (Joules/Mol)
                                  192.50976 (Kcal/Mol)
 Warning -- explicit consideration of  36 degrees of freedom as
           vibrations may cause significant error
 Vibrational temperatures:     19.50    25.46    26.81    48.38    57.46
          (Kelvin)             62.46    71.07    85.39    90.10   100.23
                              112.24   150.96   165.11   181.28   226.51
                              233.54   273.89   286.17   315.58   336.56
                              339.09   348.92   380.66   429.64   464.65
                              487.98   501.60   517.25   640.84   652.06
                              697.06   747.76   752.14   836.97   843.81
                              862.53   939.45   950.67   952.76  1026.96
                             1034.62  1081.97  1112.78  1138.11  1174.20
                             1187.49  1217.98  1229.51  1279.79  1294.40
                             1325.25  1333.16  1346.96  1398.31  1406.98
                             1447.89  1467.72  1512.43  1556.97  1595.96
                             1597.83  1629.61  1653.42  1665.79  1698.96
                             1700.58  1717.55  1743.73  1839.04  1839.98
                             1856.91  1882.14  1890.90  1911.74  1914.65
                             1928.76  1969.96  2023.05  2040.02  2044.57
                             2058.16  2103.21  2135.15  2138.67  2170.88
                             2171.88  2188.21  2188.69  2191.67  2194.75
                             2214.88  2335.79  2364.46  2400.62  2429.06
                             2468.23  2578.89  4341.06  4396.93  4398.66
                             4405.70  4419.25  4425.85  4436.89  4463.21
                             4468.46  4502.23  4503.00  4504.09  4531.15
                             4619.02  4665.82  4687.70  4713.69

 Zero-point correction=                           0.306784 (Hartree/Particle)
 Thermal correction to Energy=                    0.331513
 Thermal correction to Enthalpy=                  0.332457
 Thermal correction to Gibbs Free Energy=         0.245632
 Sum of electronic and zero-point Energies=          -1638.371626
 Sum of electronic and thermal Energies=             -1638.346896
 Sum of electronic and thermal Enthalpies=           -1638.345952
 Sum of electronic and thermal Free Energies=        -1638.432777

                     E (Thermal)             CV                S
                      KCal/Mol        Cal/Mol-Kelvin    Cal/Mol-Kelvin
 Total                  208.028             85.629            182.739
 Electronic               0.000              0.000              0.000
 Translational            0.889              2.981             43.478
 Rotational               0.889              2.981             36.060
 Vibrational            206.250             79.667            103.201
 Vibration     1          0.593              1.986              7.407
 Vibration     2          0.593              1.986              6.877
 Vibration     3          0.593              1.986              6.775
 Vibration     4          0.594              1.983              5.603
 Vibration     5          0.594              1.981              5.262
 Vibration     6          0.595              1.980              5.097
 Vibration     7          0.595              1.978              4.841
 Vibration     8          0.597              1.974              4.479
 Vibration     9          0.597              1.972              4.373
 Vibration    10          0.598              1.969              4.163
 Vibration    11          0.599              1.964              3.940
 Vibration    12          0.605              1.945              3.361
 Vibration    13          0.608              1.937              3.187
 Vibration    14          0.611              1.927              3.006
 Vibration    15          0.621              1.894              2.580
 Vibration    16          0.622              1.889              2.523
 Vibration    17          0.634              1.853              2.224
 Vibration    18          0.637              1.841              2.143
 Vibration    19          0.647              1.812              1.965
 Vibration    20          0.654              1.789              1.849
 Vibration    21          0.655              1.786              1.835
 Vibration    22          0.659              1.775              1.784
 Vibration    23          0.671              1.738              1.631
 Vibration    24          0.692              1.676              1.425
 Vibration    25          0.708              1.630              1.295
 Vibration    26          0.719              1.597              1.216
 Vibration    27          0.726              1.578              1.172
 Vibration    28          0.734              1.556              1.124
 Vibration    29          0.805              1.371              0.810
 Vibration    30          0.812              1.354              0.786
 Vibration    31          0.841              1.284              0.698
 Vibration    32          0.875              1.206              0.611
 Vibration    33          0.878              1.200              0.604
 Vibration    34          0.938              1.071              0.482
 Vibration    35          0.944              1.061              0.473
 Vibration    36          0.958              1.033              0.451

 Normal termination of Gaussian 09 at Thu Nov 14 23:41:41 2019.
