 Gaussian 16, Revision C.01,
 Gaussian 16:  ES64L-G16RevC.01  3-Jul-2019

 ----------------------------------------------------------------------
 # DSDPBEP86/AUG-cc-PVTZ SCF=Tight INT(grid=ultrafine) Pop=NBO MaxDisk=
 1400000MB
 ----------------------------------------------------------------------

 ---------------------------------
 NM3_carboxy.DSDPBEP86_AUG-cc-PVTZ
 ---------------------------------
 Symbolic Z-matrix:
 Charge = -1 Multiplicity = 1

                         Standard orientation:
 ---------------------------------------------------------------------
 Center     Atomic      Atomic             Coordinates (Angstroms)
 Number     Number       Type             X           Y           Z
 ---------------------------------------------------------------------
      1          6           0       -0.898568    0.092665   -0.045456
      2          7           0        0.437035   -0.235888   -0.055387
      3          6           0        0.987421   -1.511191   -0.004538
      4          8           0        0.324891   -2.541862    0.049604
      5          7           0        2.340512   -1.491401   -0.030301
      6          6           0        3.091188   -2.719639    0.096264
      7          6           0        4.552822   -2.470071   -0.253940
      8          6           0        5.396726   -3.728553   -0.079233
      9          6           0       -1.954882   -0.832670   -0.022200
     10          6           0       -3.264189   -0.366530   -0.020395
     11          6           0       -3.583924    0.984876   -0.039151
     12          6           0       -2.520062    1.879351   -0.064327
     13          6           0       -1.203387    1.471293   -0.067778
     14          1           0        1.090769    0.571756   -0.082907
     15          1           0        2.857022   -0.600612    0.022024
     16          1           0        2.657873   -3.475267   -0.566187
     17          1           0        3.012801   -3.120625    1.116813
     18          1           0        4.939036   -1.658022    0.369058
     19          1           0        4.611207   -2.110443   -1.285635
     20          1           0        5.370948   -4.079313    0.956474
     21          1           0        6.441767   -3.549450   -0.342275
     22          1           0        5.028814   -4.542704   -0.710753
     23          1           0       -1.736603   -1.890396   -0.010152
     24         17           0       -2.877065    3.596034   -0.096327
     25          1           0       -0.389742    2.189846   -0.088092
     26          6           0       -4.368815   -1.377559    0.056872
     27          1           0       -4.607746    1.332135   -0.041548
     28          9           0       -4.512065   -1.880503    1.299229
     29          9           0       -5.566872   -0.861401   -0.277869
     30          9           0       -4.163423   -2.429283   -0.751356
     31          8           0        1.980296    2.049263   -0.098009
     32          8           0        3.874652    0.881073    0.128422
     33          6           0        3.227942    1.946652    0.028295
     34          6           0        4.006653    3.270274    0.059328
     35          6           0        5.513229    3.107280    0.203803
     36          1           0        3.592211    3.866521    0.878296
     37          1           0        3.752357    3.813028   -0.856414
     38          1           0        5.757499    2.572960    1.123403
     39          1           0        6.019970    4.077187    0.219978
     40          1           0        5.918697    2.517646   -0.620126
 ---------------------------------------------------------------------

 SCF Done:  E(RDSDPBEP86) =  -1634.82873795     A.U. after   14 cycles
 E2(DSDPBEP86) =    -0.2208938510D+01 E(DSDPBEP86) =    -0.16370376764632D+04

 The electronic state is 1-A.
 Alpha  occ. eigenvalues -- -103.48055 -25.62283 -25.61886 -25.61675 -19.84367
 Alpha  occ. eigenvalues --  -19.82079 -19.81806 -14.98108 -14.96150 -10.99374
 Alpha  occ. eigenvalues --  -10.83348 -10.79737 -10.78849 -10.78159 -10.75740
 Alpha  occ. eigenvalues --  -10.73978 -10.73647 -10.72940 -10.72557 -10.71858
 Alpha  occ. eigenvalues --  -10.71103 -10.69645 -10.69571 -10.05553  -7.63221
 Alpha  occ. eigenvalues --   -7.62772  -7.62761  -1.48434  -1.39172  -1.38716
 Alpha  occ. eigenvalues --   -1.14691  -1.12587  -1.02912  -1.02336  -0.99409
 Alpha  occ. eigenvalues --   -0.97535  -0.92714  -0.86114  -0.84488  -0.82231
 Alpha  occ. eigenvalues --   -0.80818  -0.77590  -0.74096  -0.68994  -0.67423
 Alpha  occ. eigenvalues --   -0.67290  -0.64614  -0.64541  -0.62889  -0.60376
 Alpha  occ. eigenvalues --   -0.59097  -0.55430  -0.53650  -0.53042  -0.52480
 Alpha  occ. eigenvalues --   -0.51983  -0.50411  -0.49062  -0.48566  -0.48466
 Alpha  occ. eigenvalues --   -0.47074  -0.46817  -0.46307  -0.44910  -0.44753
 Alpha  occ. eigenvalues --   -0.44044  -0.44021  -0.43217  -0.42105  -0.41588
 Alpha  occ. eigenvalues --   -0.40914  -0.39808  -0.38539  -0.38479  -0.36991
 Alpha  occ. eigenvalues --   -0.36941  -0.36051  -0.35634  -0.34099  -0.34036
 Alpha  occ. eigenvalues --   -0.33150  -0.32380  -0.31625  -0.31588  -0.29035
 Alpha  occ. eigenvalues --   -0.26046  -0.22684  -0.22389  -0.22196  -0.22086
 Alpha  occ. eigenvalues --   -0.21908  -0.16984
 Alpha virt. eigenvalues --    0.08204   0.08946   0.09470   0.10073   0.10253
 Alpha virt. eigenvalues --    0.10938   0.11132   0.11266   0.11764   0.12633
 Alpha virt. eigenvalues --    0.12829   0.13018   0.13308   0.13429   0.13841

 Mulliken charges:
               1
     1  C    0.416425
     2  N   -0.405139
     3  C   -0.022170
     4  O   -0.971343
     5  N   -0.265019
     6  C   -0.499450
     7  C   -0.426959
     8  C   -1.011810
     9  C   -0.706959
    10  C    0.758232
    11  C   -0.892733
    12  C    0.382990
    13  C   -0.981714
    14  H    0.768804
    15  H    0.900305
    16  H    0.359832
    17  H    0.238971
    18  H    0.294166
    19  H    0.223058
    20  H    0.267267
    21  H    0.268521
    22  H    0.270402
    23  H    0.478617
    24  Cl  -0.468344
    25  H    0.703546
    26  C    1.250774
    27  H    0.416060
    28  F   -0.406190
    29  F   -0.393738
    30  F   -0.407797
    31  O   -0.944465
    32  O   -0.839790
    33  C    0.673569
    34  C   -0.276839
    35  C   -0.924903
    36  H    0.197717
    37  H    0.195104
    38  H    0.252704
    39  H    0.268413
    40  H    0.259880
 Sum of Mulliken charges =  -1.00000

 Dipole moment (field-independent basis, Debye):
    X=             -2.0050    Y=             -0.3152    Z=             -0.1439  Tot=              2.0347
 Quadrupole moment (field-independent basis, Debye-Ang):
   XX=           -200.9921   YY=           -176.2708   ZZ=           -147.2535
   XY=            -10.0320   XZ=             -0.2360   YZ=              0.9479

 Summary of Natural Population Analysis:

                                       Natural Population
                Natural  -----------------------------------------------
    Atom  No    Charge         Core      Valence    Rydberg      Total
 -----------------------------------------------------------------------
      C    1    0.22824      1.99917     3.74256    0.03004     5.77176
      N    2   -0.69373      1.99934     5.66970    0.02469     7.69373
      C    3    0.89547      1.99945     3.06781    0.03727     5.10453
      O    4   -0.76030      1.99977     6.72983    0.03070     8.76030
      N    5   -0.70570      1.99940     5.68723    0.01907     7.70570
      C    6   -0.13632      1.99944     4.11267    0.02421     6.13632
      C    7   -0.36944      1.99950     4.34943    0.02051     6.36944
      C    8   -0.54393      1.99954     4.52958    0.01481     6.54393
      C    9   -0.19555      1.99909     4.17555    0.02090     6.19555
      C   10   -0.14706      1.99902     4.11400    0.03403     6.14706
      C   11   -0.27046      1.99902     4.24663    0.02481     6.27046
      C   12    0.00510      1.99865     3.96317    0.03307     5.99490
      C   13   -0.25980      1.99901     4.23750    0.02329     6.25980
      H   14    0.46289      0.00000     0.53101    0.00610     0.53711
      H   15    0.45335      0.00000     0.54026    0.00639     0.54665
      H   16    0.17774      0.00000     0.81902    0.00324     0.82226
      H   17    0.15453      0.00000     0.84240    0.00307     0.84547
      H   18    0.19891      0.00000     0.79769    0.00340     0.80109
      H   19    0.18028      0.00000     0.81604    0.00367     0.81972
      H   20    0.17779      0.00000     0.81972    0.00249     0.82221
      H   21    0.18180      0.00000     0.81596    0.00224     0.81820
      H   22    0.17628      0.00000     0.82127    0.00245     0.82372
      H   23    0.25706      0.00000     0.73842    0.00452     0.74294
     Cl   24   -0.04287      9.99965     7.02590    0.01732    17.04287
      H   25    0.25816      0.00000     0.73821    0.00363     0.74184
      C   26    1.09865      1.99918     2.85210    0.05006     4.90135
      H   27    0.22202      0.00000     0.77401    0.00396     0.77798
      F   28   -0.37057      1.99992     7.36380    0.00685     9.37057
      F   29   -0.37387      1.99993     7.36734    0.00661     9.37387
      F   30   -0.36479      1.99992     7.35802    0.00685     9.36479
      O   31   -0.85838      1.99975     6.83570    0.02292     8.85838
      O   32   -0.83313      1.99976     6.80841    0.02496     8.83313
      C   33    0.89236      1.99963     3.06323    0.04478     5.10764
      C   34   -0.46748      1.99941     4.44593    0.02214     6.46748
      C   35   -0.54631      1.99955     4.53065    0.01611     6.54631
      H   36    0.18845      0.00000     0.80841    0.00314     0.81155
      H   37    0.18838      0.00000     0.80848    0.00314     0.81162
      H   38    0.18954      0.00000     0.80763    0.00283     0.81046
      H   39    0.16334      0.00000     0.83368    0.00298     0.83666
      H   40    0.18936      0.00000     0.80782    0.00282     0.81064
 =======================================================================
   * Total *   -0.99997     53.98711   129.39677    0.61609   183.99997

 Normal termination of Gaussian 16 at Wed Nov  4 14:39:31 2020.
