 Gaussian 16, Revision C.01,
 Gaussian 16:  ES64L-G16RevC.01  3-Jul-2019

 ----------------------------------------------------------------------
 # DSDPBEP86/AUG-cc-PVTZ SCF=Tight INT(grid=ultrafine) Pop=NBO MaxDisk=
 1400000MB
 ----------------------------------------------------------------------

 ------------------------------------
 NM3_c2_carboxy.DSDPBEP86_AUG-cc-PVTZ
 ------------------------------------
 Symbolic Z-matrix:
 Charge = -1 Multiplicity = 1

                         Standard orientation:
 ---------------------------------------------------------------------
 Center     Atomic      Atomic             Coordinates (Angstroms)
 Number     Number       Type             X           Y           Z
 ---------------------------------------------------------------------
      1          6           0        0.895268   -0.685751   -0.033761
      2          7           0       -0.478356   -0.622884   -0.057713
      3          6           0       -1.369589   -1.687867   -0.003456
      4          8           0       -1.028605   -2.864736    0.058379
      5          7           0       -2.660742   -1.283321   -0.036920
      6          6           0       -3.731363   -2.245362    0.090903
      7          6           0       -5.057530   -1.595079   -0.283118
      8          6           0       -6.226682   -2.559042   -0.108869
      9          6           0        1.584338    0.545132   -0.089347
     10          6           0        2.965603    0.562357   -0.074578
     11          6           0        3.722980   -0.607584   -0.000754
     12          6           0        3.023681   -1.799874    0.054337
     13          6           0        1.639345   -1.875606    0.038708
     14          1           0       -0.875638    0.337350   -0.103723
     15          1           0       -2.901951   -0.282323    0.021243
     16          1           0       -3.782129   -2.638681    1.116291
     17          1           0       -3.523165   -3.101431   -0.558085
     18          1           0       -4.998946   -1.248134   -1.319149
     19          1           0       -5.203626   -0.698374    0.326181
     20          1           0       -6.097791   -3.453196   -0.726065
     21          1           0       -7.174235   -2.094009   -0.390405
     22          1           0       -6.314692   -2.887550    0.930712
     23          1           0        1.006980    1.462941   -0.147261
     24         17           0        3.937079   -3.296697    0.142505
     25          1           0        1.131760   -2.827022    0.079510
     26          6           0        3.690849    1.873984   -0.072396
     27          1           0        4.804564   -0.587540    0.005000
     28          9           0        4.026600    2.263567    1.175431
     29          9           0        4.849216    1.813304   -0.761010
     30          9           0        2.975073    2.871041   -0.603248
     31          8           0       -1.316708    1.997466   -0.138187
     32          8           0       -3.459872    1.423292    0.146501
     33          6           0       -2.537084    2.258202    0.022067
     34          6           0       -2.900756    3.749687    0.064419
     35          6           0       -4.383803    4.027070    0.266461
     36          1           0       -2.537536    4.194244   -0.867415
     37          1           0       -2.300391    4.203338    0.859097
     38          1           0       -4.973499    3.577363   -0.534096
     39          1           0       -4.589377    5.101773    0.288684
     40          1           0       -4.735061    3.587549    1.201534
 ---------------------------------------------------------------------

 SCF Done:  E(RDSDPBEP86) =  -1634.82868255     A.U. after   14 cycles
 E2(DSDPBEP86) =    -0.2209014804D+01 E(DSDPBEP86) =    -0.16370376973517D+04

 The electronic state is 1-A.
 Alpha  occ. eigenvalues -- -103.48074 -25.62020 -25.61949 -25.61608 -19.84411
 Alpha  occ. eigenvalues --  -19.82048 -19.81769 -14.98124 -14.96162 -10.99319
 Alpha  occ. eigenvalues --  -10.83382 -10.79772 -10.78812 -10.78173 -10.75755
 Alpha  occ. eigenvalues --  -10.73897 -10.73662 -10.72973 -10.72589 -10.71870
 Alpha  occ. eigenvalues --  -10.71104 -10.69585 -10.69519 -10.05574  -7.63240
 Alpha  occ. eigenvalues --   -7.62794  -7.62783  -1.48357  -1.39103  -1.38632
 Alpha  occ. eigenvalues --   -1.14714  -1.12558  -1.02905  -1.02317  -0.99426
 Alpha  occ. eigenvalues --   -0.97544  -0.92704  -0.86096  -0.84484  -0.82179
 Alpha  occ. eigenvalues --   -0.80896  -0.77518  -0.74104  -0.69203  -0.67310
 Alpha  occ. eigenvalues --   -0.66757  -0.64499  -0.64258  -0.62872  -0.61879
 Alpha  occ. eigenvalues --   -0.58158  -0.55489  -0.53505  -0.52981  -0.52457
 Alpha  occ. eigenvalues --   -0.52047  -0.50364  -0.49020  -0.48506  -0.48452
 Alpha  occ. eigenvalues --   -0.47049  -0.46747  -0.46402  -0.44859  -0.44690
 Alpha  occ. eigenvalues --   -0.44060  -0.43885  -0.43290  -0.42120  -0.41362
 Alpha  occ. eigenvalues --   -0.40929  -0.39799  -0.38713  -0.38462  -0.36948
 Alpha  occ. eigenvalues --   -0.36909  -0.36028  -0.35587  -0.34228  -0.33986
 Alpha  occ. eigenvalues --   -0.33193  -0.32402  -0.31626  -0.31571  -0.28852
 Alpha  occ. eigenvalues --   -0.26091  -0.22750  -0.22573  -0.22354  -0.21964
 Alpha  occ. eigenvalues --   -0.21728  -0.16939
 Alpha virt. eigenvalues --    0.08197   0.09011   0.09490   0.10054   0.10234
 Alpha virt. eigenvalues --    0.11027   0.11130   0.11320   0.11727   0.12574
 Alpha virt. eigenvalues --    0.12759   0.12998   0.13389   0.13412   0.13840

 Mulliken charges:
               1
     1  C    0.569014
     2  N   -0.454475
     3  C   -0.034794
     4  O   -0.969609
     5  N   -0.270397
     6  C   -0.485880
     7  C   -0.440208
     8  C   -1.009822
     9  C   -1.167467
    10  C    0.632627
    11  C   -0.849476
    12  C    0.669822
    13  C   -0.812972
    14  H    0.800060
    15  H    0.887877
    16  H    0.238641
    17  H    0.362513
    18  H    0.224742
    19  H    0.303095
    20  H    0.270727
    21  H    0.267784
    22  H    0.266713
    23  H    0.554669
    24  Cl  -0.473972
    25  H    0.551429
    26  C    1.245461
    27  H    0.440829
    28  F   -0.400011
    29  F   -0.419120
    30  F   -0.382454
    31  O   -0.912429
    32  O   -0.846771
    33  C    0.667205
    34  C   -0.270550
    35  C   -0.929044
    36  H    0.192660
    37  H    0.202354
    38  H    0.263209
    39  H    0.267041
    40  H    0.250980
 Sum of Mulliken charges =  -1.00000

 Dipole moment (field-independent basis, Debye):
    X=              1.7476    Y=             -0.0815    Z=             -0.1515  Tot=              1.7560
 Quadrupole moment (field-independent basis, Debye-Ang):
   XX=           -194.0699   YY=           -181.6300   ZZ=           -147.3389
   XY=              5.8946   XZ=              0.6306   YZ=              0.5480

 Summary of Natural Population Analysis:

                                       Natural Population
                Natural  -----------------------------------------------
    Atom  No    Charge         Core      Valence    Rydberg      Total
 -----------------------------------------------------------------------
      C    1    0.22719      1.99917     3.74316    0.03048     5.77281
      N    2   -0.69442      1.99934     5.66913    0.02595     7.69442
      C    3    0.89626      1.99945     3.06788    0.03640     5.10374
      O    4   -0.76143      1.99977     6.73126    0.03040     8.76143
      N    5   -0.70560      1.99940     5.68704    0.01917     7.70560
      C    6   -0.13639      1.99944     4.11277    0.02418     6.13639
      C    7   -0.36965      1.99950     4.34963    0.02052     6.36965
      C    8   -0.54398      1.99954     4.52962    0.01481     6.54398
      C    9   -0.17700      1.99910     4.15476    0.02314     6.17700
      C   10   -0.15513      1.99903     4.12081    0.03528     6.15513
      C   11   -0.27491      1.99901     4.25028    0.02562     6.27491
      C   12    0.01323      1.99867     3.95447    0.03364     5.98677
      C   13   -0.27852      1.99901     4.25619    0.02332     6.27852
      H   14    0.46327      0.00000     0.53047    0.00626     0.53673
      H   15    0.45345      0.00000     0.54013    0.00642     0.54655
      H   16    0.15409      0.00000     0.84283    0.00307     0.84591
      H   17    0.17811      0.00000     0.81863    0.00326     0.82189
      H   18    0.17990      0.00000     0.81640    0.00370     0.82010
      H   19    0.19965      0.00000     0.79694    0.00341     0.80035
      H   20    0.17610      0.00000     0.82144    0.00245     0.82390
      H   21    0.18184      0.00000     0.81591    0.00225     0.81816
      H   22    0.17779      0.00000     0.81972    0.00249     0.82221
      H   23    0.25031      0.00000     0.74549    0.00421     0.74969
     Cl   24   -0.04730      9.99965     7.03031    0.01734    17.04730
      H   25    0.26649      0.00000     0.72967    0.00384     0.73351
      C   26    1.11303      1.99918     2.83767    0.05012     4.88697
      H   27    0.21961      0.00000     0.77632    0.00407     0.78039
      F   28   -0.37501      1.99993     7.36726    0.00782     9.37501
      F   29   -0.37734      1.99993     7.36993    0.00749     9.37734
      F   30   -0.36067      1.99992     7.35304    0.00770     9.36067
      O   31   -0.85776      1.99975     6.83495    0.02306     8.85776
      O   32   -0.83338      1.99976     6.80868    0.02494     8.83338
      C   33    0.89240      1.99963     3.06319    0.04478     5.10760
      C   34   -0.46754      1.99941     4.44601    0.02213     6.46754
      C   35   -0.54627      1.99955     4.53062    0.01610     6.54627
      H   36    0.18870      0.00000     0.80817    0.00312     0.81130
      H   37    0.18886      0.00000     0.80798    0.00315     0.81114
      H   38    0.18943      0.00000     0.80775    0.00283     0.81057
      H   39    0.16344      0.00000     0.83358    0.00298     0.83656
      H   40    0.18923      0.00000     0.80794    0.00283     0.81077
 =======================================================================
   * Total *   -0.99989     53.98712   129.38803    0.62473   183.99989

 Normal termination of Gaussian 16 at Wed Nov  4 14:53:10 2020.
