 Gaussian 09, Revision E.01,

 ----------------------------------------------------------------------
 # M062X/6-311+G* SCF=Tight INT(grid=ultrafine) OPT IOP(2/17=4) Empiric
 alDispersion=GD3 SCRF=(SMD,Solvent=n-Pentadecane) maxdisk=2684354560
 ----------------------------------------------------------------------

 -------------------------------------------------
 NM3_c2_carboxy.M062X_6-311pGd_opt_Pentadecane_GD3
 -------------------------------------------------
 Symbolic Z-matrix:
 Charge = -1 Multiplicity = 1

 SCF Done:  E(RM062X) =  -1638.71852308     A.U. after   16 cycles
 Optimization completed.
    -- Stationary point found.
 Normal termination of Gaussian 09 at Thu Nov 14 22:08:04 2019.
 Gaussian 09:  ES64L-G09RevE.01 30-Nov-2015

 ----------------------------------------------------------------------
 # M062X/6-311+G* SCF=Tight INT(grid=ultrafine) SCRF=(SMD,Solvent=n-Pen
 tadecane) EmpiricalDispersion=GD3 Freq=Noraman maxdisk=2684354560 geom
 =check guess=read IOP(2/17=4)
 ----------------------------------------------------------------------

 -------------------------------------------------
 NM3_c2_carboxy.M062X_6-311pGd_opt_Pentadecane_GD3
 -------------------------------------------------
 Structure from the checkpoint file:  "NM3_c2_carboxy.M062X_6-311pGd_opt_Pentadecane_GD3.chk"
 Charge = -1 Multiplicity = 1

                         Standard orientation:
 ---------------------------------------------------------------------
 Center     Atomic      Atomic             Coordinates (Angstroms)
 Number     Number       Type             X           Y           Z
 ---------------------------------------------------------------------
      1          6           0       -0.888818   -0.688314   -0.014300
      2          7           0        0.487333   -0.623241   -0.033363
      3          6           0        1.379994   -1.686196    0.000407
      4          8           0        1.036866   -2.864469    0.042577
      5          7           0        2.670849   -1.284948   -0.029352
      6          6           0        3.746108   -2.250064    0.063864
      7          6           0        5.069125   -1.591413   -0.304638
      8          6           0        6.235668   -2.564572   -0.179344
      9          6           0       -1.578510    0.541390   -0.081256
     10          6           0       -2.959029    0.557650   -0.071418
     11          6           0       -3.717154   -0.611920    0.009754
     12          6           0       -3.017803   -1.802337    0.079123
     13          6           0       -1.632070   -1.876017    0.067225
     14          1           0        0.880818    0.337444   -0.081054
     15          1           0        2.910994   -0.285403    0.040087
     16          1           0        3.534890   -3.087334   -0.607645
     17          1           0        3.805067   -2.668463    1.077868
     18          1           0        5.229197   -0.719956    0.337122
     19          1           0        4.999673   -1.208893   -1.327546
     20          1           0        6.337931   -2.929427    0.846748
     21          1           0        7.180392   -2.091449   -0.457037
     22          1           0        6.097474   -3.435350   -0.827100
     23          1           0       -1.004096    1.459985   -0.143781
     24         17           0       -3.925669   -3.299708    0.184448
     25          1           0       -1.126905   -2.827823    0.119056
     26          6           0       -3.695899    1.862401   -0.106184
     27          1           0       -4.799501   -0.590772    0.014648
     28          9           0       -4.722503    1.837665   -0.979945
     29          9           0       -4.242088    2.165021    1.090353
     30          9           0       -2.921492    2.897564   -0.445707
     31          8           0        1.305938    2.008855   -0.130072
     32          8           0        3.442885    1.437619    0.182292
     33          6           0        2.524990    2.275486    0.041255
     34          6           0        2.885752    3.765463    0.070570
     35          6           0        4.355740    4.057195    0.330816
     36          1           0        2.250211    4.235760    0.827139
     37          1           0        2.565678    4.190012   -0.886453
     38          1           0        4.671800    3.649139    1.292747
     39          1           0        4.549890    5.133962    0.336437
     40          1           0        4.986264    3.600100   -0.433786
 ---------------------------------------------------------------------

 SCF Done:  E(RM062X) =  -1638.71852308     A.U. after    2 cycles

 The electronic state is 1-A.
 Alpha  occ. eigenvalues -- -102.63547 -25.23782 -25.23629 -25.23389 -19.52279
 Alpha  occ. eigenvalues --  -19.49982 -19.49738 -14.70641 -14.68718 -10.76073
 Alpha  occ. eigenvalues --  -10.60631 -10.56814 -10.56116 -10.55477 -10.53103
 Alpha  occ. eigenvalues --  -10.51279 -10.50929 -10.50560 -10.50174 -10.48069
 Alpha  occ. eigenvalues --  -10.48030 -10.46706 -10.46414  -9.77821  -7.50321
 Alpha  occ. eigenvalues --   -7.49669  -7.49659  -1.42948  -1.33679  -1.33176
 Alpha  occ. eigenvalues --   -1.11100  -1.09037  -0.99743  -0.99086  -0.96532
 Alpha  occ. eigenvalues --   -0.94817  -0.90327  -0.83981  -0.82397  -0.80006
 Alpha  occ. eigenvalues --   -0.79190  -0.76666  -0.72835  -0.69065  -0.66842
 Alpha  occ. eigenvalues --   -0.66399  -0.65286  -0.64511  -0.62907  -0.62308
 Alpha  occ. eigenvalues --   -0.58762  -0.56697  -0.54268  -0.53662  -0.53415
 Alpha  occ. eigenvalues --   -0.53039  -0.51390  -0.50096  -0.49767  -0.49228
 Alpha  occ. eigenvalues --   -0.48208  -0.47918  -0.47307  -0.46716  -0.46333
 Alpha  occ. eigenvalues --   -0.46192  -0.45635  -0.44758  -0.43760  -0.43243
 Alpha  occ. eigenvalues --   -0.43098  -0.41615  -0.40557  -0.40383  -0.39605
 Alpha  occ. eigenvalues --   -0.38715  -0.37995  -0.37321  -0.37016  -0.35947
 Alpha  occ. eigenvalues --   -0.35149  -0.34402  -0.34037  -0.33839  -0.32295
 Alpha  occ. eigenvalues --   -0.28602  -0.26928  -0.25836  -0.25315  -0.24920
 Alpha  occ. eigenvalues --   -0.24745  -0.21407
 Alpha virt. eigenvalues --    0.04571   0.05537   0.05795   0.05933   0.06553
 Alpha virt. eigenvalues --    0.07033   0.07594   0.07857   0.08158   0.08416
 Alpha virt. eigenvalues --    0.08990   0.09265   0.09638   0.09868   0.10217

 Mulliken charges:
               1
     1  C   -0.994286
     2  N   -0.478302
     3  C    0.092209
     4  O   -0.411669
     5  N   -0.353879
     6  C   -0.494576
     7  C   -0.128567
     8  C   -1.090619
     9  C   -0.684090
    10  C   -0.730827
    11  C    0.290956
    12  C    0.874759
    13  C   -0.766942
    14  H    0.474550
    15  H    0.451893
    16  H    0.240513
    17  H    0.249915
    18  H    0.276511
    19  H    0.267941
    20  H    0.256525
    21  H    0.263405
    22  H    0.254469
    23  H    0.379811
    24  Cl   0.375197
    25  H    0.330295
    26  C    0.906702
    27  H    0.300188
    28  F   -0.096273
    29  F   -0.069758
    30  F   -0.126911
    31  O   -0.508081
    32  O   -0.446460
    33  C    0.046041
    34  C   -0.195992
    35  C   -1.028003
    36  H    0.253762
    37  H    0.255999
    38  H    0.258960
    39  H    0.244860
    40  H    0.259775
 Sum of Mulliken charges =  -1.00000

 Dipole moment (field-independent basis, Debye):
    X=             -1.4878    Y=             -0.3908    Z=             -0.1462  Tot=              1.5452
 Quadrupole moment (field-independent basis, Debye-Ang):
   XX=           -186.9492   YY=           -178.8353   ZZ=           -148.4601
   XY=             -5.6455   XZ=             -1.1563   YZ=              0.5030

  Exact polarizability: 315.834   4.771 258.450   0.674  -4.634 147.605
 Approx polarizability: 293.374   3.646 265.971   1.275  -5.744 177.567

                      1                      2                      3
                      A                      A                      A
 Frequencies --     20.8187                23.1552                30.1771
 Red. masses --      4.8855                 5.8436                14.7448
 Frc consts  --      0.0012                 0.0018                 0.0079
 IR Inten    --      0.6724                 0.4828                 0.1989

                      4                      5                      6
                      A                      A                      A
 Frequencies --     40.2132                45.7726                52.1184
 Red. masses --      3.0248                 2.0505                 4.1323
 Frc consts  --      0.0029                 0.0025                 0.0066
 IR Inten    --      0.3312                 0.8602                 1.4201

                      7                      8                      9
                      A                      A                      A
 Frequencies --     56.9621                62.8665                68.3215
 Red. masses --      3.9058                 4.4623                 4.6447
 Frc consts  --      0.0075                 0.0104                 0.0128
 IR Inten    --      0.5803                 1.4698                 0.5359

                     10                     11                     12
                      A                      A                      A
 Frequencies --     79.2265                83.4703               105.2348
 Red. masses --      4.9397                 5.0684                 7.7249
 Frc consts  --      0.0183                 0.0208                 0.0504
 IR Inten    --      4.1855                 6.7559                 7.8129

                     13                     14                     15
                      A                      A                      A
 Frequencies --    121.0969               128.5939               143.2599
 Red. masses --      5.8667                 8.7162                11.8090
 Frc consts  --      0.0507                 0.0849                 0.1428
 IR Inten    --      0.4781                10.5060                 4.2531

                     16                     17                     18
                      A                      A                      A
 Frequencies --    160.1489               187.4137               206.8018
 Red. masses --      3.7202                 3.8970                 3.8595
 Frc consts  --      0.0562                 0.0806                 0.0972
 IR Inten    --     14.2494                13.6626                 0.2907

                     19                     20                     21
                      A                      A                      A
 Frequencies --    210.9468               230.8324               241.6893
 Red. masses --      1.2844                 7.2575                 1.7297
 Frc consts  --      0.0337                 0.2278                 0.0595
 IR Inten    --      1.3148                 5.5217                 0.3132

                     22                     23                     24
                      A                      A                      A
 Frequencies --    245.3329               265.5837               292.3059
 Red. masses --      1.9601                 5.7092                 3.9789
 Frc consts  --      0.0695                 0.2373                 0.2003
 IR Inten    --      0.5337                 6.8890                12.5469

                     25                     26                     27
                      A                      A                      A
 Frequencies --    328.1971               337.6587               342.3306
 Red. masses --     12.4142                 6.4201                 6.0905
 Frc consts  --      0.7878                 0.4313                 0.4205
 IR Inten    --      2.5647                 0.7663                 4.4110

                     28                     29                     30
                      A                      A                      A
 Frequencies --    371.5518               431.0185               471.5887
 Red. masses --      7.1937                 8.2447                 5.9898
 Frc consts  --      0.5851                 0.9024                 0.7849
 IR Inten    --     26.0262                 5.5464                 5.9114

                     31                     32                     33
                      A                      A                      A
 Frequencies --    476.3946               517.0625               525.4146
 Red. masses --      5.3299                11.0161                 5.7111
 Frc consts  --      0.7127                 1.7353                 0.9289
 IR Inten    --      1.0281                 1.8877                39.0427

                     34                     35                     36
                      A                      A                      A
 Frequencies --    585.7484               587.2384               600.5849
 Red. masses --      1.9975                 5.3097                10.4115
 Frc consts  --      0.4038                 1.0788                 2.2126
 IR Inten    --      1.1213                 0.2779                 0.2522

                     37                     38                     39
                      A                      A                      A
 Frequencies --    650.3462               656.8142               661.6126
 Red. masses --      6.0467                 5.3184                 4.6792
 Frc consts  --      1.5068                 1.3518                 1.2068
 IR Inten    --     33.9650                 3.8940                29.5918

                     40                     41                     42
                      A                      A                      A
 Frequencies --    717.3576               718.9861               756.1835
 Red. masses --      7.2124                 2.9024                 1.1058
 Frc consts  --      2.1868                 0.8840                 0.3725
 IR Inten    --     52.3789                19.9245                 4.7607

                     43                     44                     45
                      A                      A                      A
 Frequencies --    768.3738               787.7352               813.0334
 Red. masses --      2.2432                 5.5702                 1.7860
 Frc consts  --      0.7803                 2.0365                 0.6956
 IR Inten    --     71.7655                21.5451                 3.6377

                     46                     47                     48
                      A                      A                      A
 Frequencies --    827.4560               853.6808               855.5949
 Red. masses --      1.4753                 7.9756                 1.5938
 Frc consts  --      0.5951                 3.4245                 0.6874
 IR Inten    --     11.0864                36.8105                29.8660

                     49                     50                     51
                      A                      A                      A
 Frequencies --    890.4761               902.4577               922.2546
 Red. masses --      3.8952                 1.1921                 1.4652
 Frc consts  --      1.8198                 0.5720                 0.7343
 IR Inten    --     50.8582                 5.5542                35.9942

                     52                     53                     54
                      A                      A                      A
 Frequencies --    923.5477               938.9652               970.0860
 Red. masses --      1.8141                 1.1666                 4.7187
 Frc consts  --      0.9116                 0.6060                 2.6163
 IR Inten    --      2.8074                34.7668                43.9966

                     55                     56                     57
                      A                      A                      A
 Frequencies --    975.9620              1005.8072              1024.4353
 Red. masses --      1.2456                 5.8505                 1.6820
 Frc consts  --      0.6991                 3.4872                 1.0400
 IR Inten    --     98.8629                56.8046                 6.1045

                     58                     59                     60
                      A                      A                      A
 Frequencies --   1051.7108              1082.2575              1109.7452
 Red. masses --      4.0033                 2.7438                 1.8517
 Frc consts  --      2.6089                 1.8935                 1.3436
 IR Inten    --     47.3750                33.1548                 1.7922

                     61                     62                     63
                      A                      A                      A
 Frequencies --   1110.3392              1138.4006              1144.4769
 Red. masses --      2.2827                 1.6789                 2.4378
 Frc consts  --      1.6581                 1.2820                 1.8813
 IR Inten    --      4.8752                18.8606                80.9076

                     64                     65                     66
                      A                      A                      A
 Frequencies --   1157.5268              1159.8628              1180.1881
 Red. masses --      6.8003                 2.3563                 1.8482
 Frc consts  --      5.3683                 1.8676                 1.5167
 IR Inten    --    280.3333                63.1616                51.0737

                     67                     68                     69
                      A                      A                      A
 Frequencies --   1188.7134              1211.0531              1280.7415
 Red. masses --      3.1820                 7.4342                 1.2024
 Frc consts  --      2.6491                 6.4241                 1.1620
 IR Inten    --     20.2711               285.7103                19.7730

                     70                     71                     72
                      A                      A                      A
 Frequencies --   1284.8516              1294.3387              1299.6035
 Red. masses --      1.9262                 1.1806                 2.3496
 Frc consts  --      1.8736                 1.1653                 2.3381
 IR Inten    --    137.3578                 0.3277               107.3519

                     73                     74                     75
                      A                      A                      A
 Frequencies --   1316.7725              1330.7428              1332.1328
 Red. masses --      1.7116                 1.2023                 1.6295
 Frc consts  --      1.7485                 1.2545                 1.7037
 IR Inten    --    328.8533                66.6243               113.2274

                     76                     77                     78
                      A                      A                      A
 Frequencies --   1351.5373              1365.6327              1395.7291
 Red. masses --      2.2722                 1.8450                 4.8364
 Frc consts  --      2.4455                 2.0272                 5.5510
 IR Inten    --    120.1927               288.3301               513.5971

                     79                     80                     81
                      A                      A                      A
 Frequencies --   1419.9802              1423.4909              1430.1998
 Red. masses --      1.3119                 1.3581                 1.5443
 Frc consts  --      1.5586                 1.6214                 1.8611
 IR Inten    --     19.2424                 5.9126                 5.8085

                     82                     83                     84
                      A                      A                      A
 Frequencies --   1463.0210              1478.7935              1481.9772
 Red. masses --      3.2076                 1.4117                 3.2164
 Frc consts  --      4.0451                 1.8189                 4.1620
 IR Inten    --    431.0159                99.0355                51.6671

                     85                     86                     87
                      A                      A                      A
 Frequencies --   1504.5430              1506.9741              1516.9349
 Red. masses --      1.0646                 1.0393                 1.0883
 Frc consts  --      1.4199                 1.3906                 1.4755
 IR Inten    --      8.7608                10.1184                56.7792

                     88                     89                     90
                      A                      A                      A
 Frequencies --   1517.6725              1520.4270              1526.5035
 Red. masses --      1.0386                 1.0813                 3.6302
 Frc consts  --      1.4094                 1.4728                 4.9840
 IR Inten    --     10.2209                 6.9777               285.0548

                     91                     92                     93
                      A                      A                      A
 Frequencies --   1533.8732              1615.2350              1639.5440
 Red. masses --      1.1138                 2.8105                 3.8092
 Frc consts  --      1.5439                 4.3202                 6.0329
 IR Inten    --      5.2686               153.6864               181.7516

                     94                     95                     96
                      A                      A                      A
 Frequencies --   1671.0941              1683.3974              1708.2777
 Red. masses --      3.0919                 4.0136                 2.9432
 Frc consts  --      5.0872                 6.7013                 5.0604
 IR Inten    --   1212.6156                88.2671               529.3357

                     97                     98                     99
                      A                      A                      A
 Frequencies --   1782.7747              3022.9589              3055.8201
 Red. masses --      2.4856                 1.0714                 1.0936
 Frc consts  --      4.6546                 5.7685                 6.0169
 IR Inten    --    414.8369                73.1487              1375.6124

                    100                    101                    102
                      A                      A                      A
 Frequencies --   3060.1079              3065.6301              3074.7712
 Red. masses --      1.0370                 1.0450                 1.0603
 Frc consts  --      5.7214                 5.7862                 5.9060
 IR Inten    --     44.2965                 8.9712                20.3015

                    103                    104                    105
                      A                      A                      A
 Frequencies --   3076.6746              3091.0526              3105.9810
 Red. masses --      1.0619                 1.0918                 1.1008
 Frc consts  --      5.9223                 6.1463                 6.2568
 IR Inten    --     22.8445                39.1077                10.6726

                    106                    107                    108
                      A                      A                      A
 Frequencies --   3110.0605              3132.0825              3132.7076
 Red. masses --      1.1023                 1.1037                 1.0977
 Frc consts  --      6.2820                 6.3795                 6.3468
 IR Inten    --      2.7171                75.1349                49.6079

                    109                    110                    111
                      A                      A                      A
 Frequencies --   3133.3815              3151.9096              3220.4578
 Red. masses --      1.1015                 1.1027                 1.0932
 Frc consts  --      6.3716                 6.4543                 6.6800
 IR Inten    --     41.5813                42.1181                13.4733

                    112                    113                    114
                      A                      A                      A
 Frequencies --   3245.2359              3250.8120              3284.4498
 Red. masses --      1.0927                 1.0894                 1.0924
 Frc consts  --      6.7804                 6.7832                 6.9431
 IR Inten    --      6.8250              1436.6823                22.2368

 - Thermochemistry -
 -------------------
 Temperature   298.150 Kelvin.  Pressure   1.00000 Atm.
 Atom     1 has atomic number  6 and mass  12.00000

 Molecular mass:   353.08798 amu.
 Principal axes and moments of inertia in atomic units:
                           1         2         3
     Eigenvalues --  6881.26914********************
           X            0.99999   0.00487  -0.00034
           Y           -0.00487   0.99998   0.00388
           Z            0.00036  -0.00388   0.99999
 This molecule is an asymmetric top.
 Rotational symmetry number  1.
 Warning -- assumption of classical behavior for rotation
           may cause significant error
 Rotational temperatures (Kelvin)      0.01259     0.00583     0.00406
 Rotational constants (GHZ):           0.26227     0.12150     0.08466
 Zero-point vibrational energy     805825.2 (Joules/Mol)
                                  192.59686 (Kcal/Mol)
 Warning -- explicit consideration of  36 degrees of freedom as
           vibrations may cause significant error
 Vibrational temperatures:     29.95    33.32    43.42    57.86    65.86
          (Kelvin)             74.99    81.96    90.45    98.30   113.99
                              120.10   151.41   174.23   185.02   206.12
                              230.42   269.65   297.54   303.51   332.12
                              347.74   352.98   382.12   420.56   472.20
                              485.81   492.54   534.58   620.14   678.51
                              685.42   743.94   755.95   842.76   844.90
                              864.11   935.70   945.01   951.91  1032.12
                             1034.46  1087.98  1105.52  1133.37  1169.77
                             1190.52  1228.25  1231.01  1281.19  1298.43
                             1326.92  1328.78  1350.96  1395.74  1404.19
                             1447.13  1473.93  1513.18  1557.13  1596.67
                             1597.53  1637.90  1646.64  1665.42  1668.78
                             1698.03  1710.29  1742.43  1842.70  1848.61
                             1862.26  1869.84  1894.54  1914.64  1916.64
                             1944.56  1964.84  2008.14  2043.03  2048.08
                             2057.74  2104.96  2127.65  2132.23  2164.70
                             2168.20  2182.53  2183.59  2187.55  2196.30
                             2206.90  2323.96  2358.94  2404.33  2422.03
                             2457.83  2565.01  4349.36  4396.64  4402.81
                             4410.75  4423.90  4426.64  4447.33  4468.81
                             4474.68  4506.36  4507.26  4508.23  4534.89
                             4633.51  4669.16  4677.19  4725.58

 Zero-point correction=                           0.306923 (Hartree/Particle)
 Thermal correction to Energy=                    0.331497
 Thermal correction to Enthalpy=                  0.332441
 Thermal correction to Gibbs Free Energy=         0.247644
 Sum of electronic and zero-point Energies=          -1638.411600
 Sum of electronic and thermal Energies=             -1638.387026
 Sum of electronic and thermal Enthalpies=           -1638.386082
 Sum of electronic and thermal Free Energies=        -1638.470879

                     E (Thermal)             CV                S
                      KCal/Mol        Cal/Mol-Kelvin    Cal/Mol-Kelvin
 Total                  208.018             85.616            178.470
 Electronic               0.000              0.000              0.000
 Translational            0.889              2.981             43.478
 Rotational               0.889              2.981             36.031
 Vibrational            206.240             79.655             98.961
 Vibration     1          0.593              1.986              6.555
 Vibration     2          0.593              1.985              6.343
 Vibration     3          0.594              1.984              5.818
 Vibration     4          0.594              1.981              5.249
 Vibration     5          0.595              1.979              4.992
 Vibration     6          0.596              1.977              4.735
 Vibration     7          0.596              1.975              4.560
 Vibration     8          0.597              1.972              4.365
 Vibration     9          0.598              1.969              4.201
 Vibration    10          0.600              1.963              3.910
 Vibration    11          0.600              1.961              3.808
 Vibration    12          0.605              1.945              3.355
 Vibration    13          0.609              1.932              3.083
 Vibration    14          0.611              1.925              2.967
 Vibration    15          0.616              1.910              2.760
 Vibration    16          0.622              1.891              2.548
 Vibration    17          0.632              1.857              2.253
 Vibration    18          0.641              1.830              2.072
 Vibration    19          0.643              1.824              2.035
 Vibration    20          0.653              1.794              1.872
 Vibration    21          0.658              1.776              1.790
 Vibration    22          0.660              1.771              1.764
 Vibration    23          0.671              1.736              1.625
 Vibration    24          0.688              1.688              1.461
 Vibration    25          0.711              1.619              1.269
 Vibration    26          0.718              1.600              1.223
 Vibration    27          0.721              1.591              1.201
 Vibration    28          0.743              1.531              1.073
 Vibration    29          0.792              1.403              0.855
 Vibration    30          0.829              1.313              0.733
 Vibration    31          0.833              1.302              0.720
 Vibration    32          0.872              1.212              0.617
 Vibration    33          0.880              1.194              0.598
 Vibration    34          0.943              1.062              0.475
 Vibration    35          0.944              1.059              0.472
 Vibration    36          0.959              1.031              0.449

 Optimization completed.
    -- Stationary point found.
 Normal termination of Gaussian 09 at Thu Nov 14 23:50:36 2019.
