 Gaussian 09, Revision E.01,

 ----------------------------------------------------------------------
 # M062X/6-311+G* SCF=Tight INT(grid=ultrafine) OPT IOP(2/17=4) Empiric
 alDispersion=GD3 SCRF=(SMD,Solvent=h2o) maxdisk=2147483648
 ----------------------------------------------------------------------

 --------------------------------------
 CP19CA_c2.M062X_6-311pGd_opt_water_GD3
 --------------------------------------
 Symbolic Z-matrix:
 Charge =  0 Multiplicity = 1

 SCF Done:  E(RM062X) =  -1390.68202461     A.U. after   15 cycles
 Optimization completed.
    -- Stationary point found.
 Normal termination of Gaussian 09 at Thu Nov 14 17:21:26 2019.
 Gaussian 09:  ES64L-G09RevE.01 30-Nov-2015

 ----------------------------------------------------------------------
 # M062X/6-311+G* SCF=Tight INT(grid=ultrafine) SCRF=(SMD,Solvent=h2o)
 EmpiricalDispersion=GD3 Freq=Noraman maxdisk=2147483648 geom=check gue
 ss=read IOP(2/17=4)
 ----------------------------------------------------------------------

 --------------------------------------
 CP19CA_c2.M062X_6-311pGd_opt_water_GD3
 --------------------------------------
 Structure from the checkpoint file:  "CP19CA_c2.M062X_6-311pGd_opt_water_GD3.chk"
 Charge =  0 Multiplicity = 1

                         Standard orientation:
 ---------------------------------------------------------------------
 Center     Atomic      Atomic             Coordinates (Angstroms)
 Number     Number       Type             X           Y           Z
 ---------------------------------------------------------------------
      1          6           0       -0.254030    0.121769   -0.046853
      2          7           0       -1.600718    0.488319   -0.070711
      3          6           0       -2.690529   -0.330427    0.003428
      4          8           0       -2.671091   -1.540872    0.095382
      5          8           0       -3.808062    0.403095   -0.038381
      6          6           0       -5.051552   -0.327427    0.033960
      7          6           0       -6.176772    0.679729   -0.033368
      8          6           0       -7.527116   -0.024763    0.038890
      9          6           0        0.672382    1.172737   -0.017293
     10          6           0        2.024888    0.900306   -0.001651
     11          6           0        2.497366   -0.414239   -0.012257
     12          6           0        1.567595   -1.446985   -0.043039
     13          6           0        0.202378   -1.198142   -0.062208
     14          1           0       -1.800204    1.480746   -0.112308
     15          1           0       -5.071062   -0.889260    0.970031
     16          1           0       -5.091162   -1.029776   -0.801181
     17          1           0       -6.094205    1.247311   -0.964248
     18          1           0       -6.073783    1.388220    0.793024
     19          1           0       -7.650045   -0.726819   -0.789632
     20          1           0       -8.344964    0.695932   -0.009559
     21          1           0       -7.629527   -0.585158    0.971581
     22          1           0        0.326694    2.199927   -0.005099
     23         17           0        3.127265    2.250890    0.034663
     24          6           0        3.963330   -0.721894    0.006459
     25          1           0        1.910690   -2.473794   -0.055437
     26          1           0       -0.488404   -2.025329   -0.091878
     27          9           0        4.199157   -2.040108   -0.008777
     28          9           0        4.612641   -0.204842   -1.052971
     29          9           0        4.578544   -0.235842    1.100415
 ---------------------------------------------------------------------

 SCF Done:  E(RM062X) =  -1390.68202461     A.U. after    2 cycles

 The electronic state is 1-A.
 Alpha  occ. eigenvalues -- -102.69172 -25.28750 -25.28326 -25.28325 -19.67693
 Alpha  occ. eigenvalues --  -19.62203 -14.80192 -10.81339 -10.71786 -10.63284
 Alpha  occ. eigenvalues --  -10.62150 -10.59048 -10.58417 -10.57179 -10.56816
 Alpha  occ. eigenvalues --  -10.55767 -10.53088 -10.51913  -9.83457  -7.55972
 Alpha  occ. eigenvalues --   -7.55292  -7.55275  -1.47915  -1.38562  -1.38147
 Alpha  occ. eigenvalues --   -1.25783  -1.15871  -1.07978  -1.01957  -0.95570
 Alpha  occ. eigenvalues --   -0.90965  -0.88778  -0.85549  -0.82446  -0.79245
 Alpha  occ. eigenvalues --   -0.74508  -0.73465  -0.70256  -0.70250  -0.68858
 Alpha  occ. eigenvalues --   -0.67378  -0.66054  -0.64803  -0.61529  -0.59351
 Alpha  occ. eigenvalues --   -0.58565  -0.58510  -0.57088  -0.55859  -0.54394
 Alpha  occ. eigenvalues --   -0.54258  -0.53787  -0.53573  -0.52186  -0.51948
 Alpha  occ. eigenvalues --   -0.50829  -0.50452  -0.49523  -0.46938  -0.46185
 Alpha  occ. eigenvalues --   -0.45359  -0.44057  -0.43242  -0.42718  -0.40156
 Alpha  occ. eigenvalues --   -0.40146  -0.39440  -0.39384  -0.38131  -0.37995
 Alpha  occ. eigenvalues --   -0.32166  -0.29818
 Alpha virt. eigenvalues --   -0.01254  -0.00344   0.01072   0.02173   0.02590
 Alpha virt. eigenvalues --    0.03090   0.03700   0.03970   0.04625   0.04988
 Alpha virt. eigenvalues --    0.05127   0.05567   0.06463   0.06614   0.06904

 Mulliken charges:
               1
     1  C   -0.688634
     2  N   -0.485757
     3  C    0.139302
     4  O   -0.415958
     5  O   -0.083249
     6  C   -0.371940
     7  C   -0.158414
     8  C   -1.068662
     9  C   -0.521971
    10  C    0.934080
    11  C   -1.101718
    12  C   -0.136611
    13  C   -0.088450
    14  H    0.481982
    15  H    0.289983
    16  H    0.290462
    17  H    0.271171
    18  H    0.271007
    19  H    0.272212
    20  H    0.284032
    21  H    0.272397
    22  H    0.321126
    23  Cl   0.417822
    24  C    0.520408
    25  H    0.318426
    26  H    0.316969
    27  F   -0.148453
    28  F   -0.065645
    29  F   -0.065917
 Sum of Mulliken charges =  -0.00000

 Dipole moment (field-independent basis, Debye):
    X=             -6.9957    Y=              2.6134    Z=             -0.3012  Tot=              7.4739
 Quadrupole moment (field-independent basis, Debye-Ang):
   XX=           -112.4260   YY=           -109.2396   ZZ=           -113.4742
   XY=             -8.0111   XZ=              0.2372   YZ=              0.5431

  Exact polarizability: 274.116  12.379 225.927   0.571  -0.307 139.161
 Approx polarizability: 219.066   8.517 202.788   0.730  -0.280 127.558

                      1                      2                      3
                      A                      A                      A
 Frequencies --      9.1044                24.0092                54.3184
 Red. masses --      4.4230                 5.4210                14.1739
 Frc consts  --      0.0002                 0.0018                 0.0246
 IR Inten    --      4.8186                 2.2590                 0.0451

                      4                      5                      6
                      A                      A                      A
 Frequencies --     57.5198                65.0112                85.2243
 Red. masses --      4.8737                 4.8339                 2.0718
 Frc consts  --      0.0095                 0.0120                 0.0089
 IR Inten    --      0.1682                 0.6048                 6.0477

                      7                      8                      9
                      A                      A                      A
 Frequencies --    105.2115               142.6342               164.6995
 Red. masses --      5.3713                 7.3885                 3.2781
 Frc consts  --      0.0350                 0.0886                 0.0524
 IR Inten    --      0.6655                 4.6014                 6.1701

                     10                     11                     12
                      A                      A                      A
 Frequencies --    171.5154               180.6145               200.8208
 Red. masses --     11.2464                 6.2802                 6.9315
 Frc consts  --      0.1949                 0.1207                 0.1647
 IR Inten    --      1.1760                 2.1169                 0.7122

                     13                     14                     15
                      A                      A                      A
 Frequencies --    237.6512               244.9384               252.3290
 Red. masses --      1.2342                 5.1931                 6.5325
 Frc consts  --      0.0411                 0.1836                 0.2451
 IR Inten    --      0.2823                 0.2816                 2.9158

                     16                     17                     18
                      A                      A                      A
 Frequencies --    324.2871               342.0919               358.4412
 Red. masses --     15.3455                 5.6397                 5.5212
 Frc consts  --      0.9508                 0.3889                 0.4179
 IR Inten    --      2.4824                 9.7168                28.9282

                     19                     20                     21
                      A                      A                      A
 Frequencies --    423.0790               454.7994               456.9224
 Red. masses --      6.3577                 5.6476                 4.4196
 Frc consts  --      0.6705                 0.6883                 0.5437
 IR Inten    --      3.0380                10.2222                 7.7253

                     22                     23                     24
                      A                      A                      A
 Frequencies --    471.6912               511.7690               561.8572
 Red. masses --      8.1290                 6.3743                 5.4902
 Frc consts  --      1.0656                 0.9836                 1.0212
 IR Inten    --      9.2974                37.5889                10.5336

                     25                     26                     27
                      A                      A                      A
 Frequencies --    575.8304               597.4246               628.3726
 Red. masses --      1.2601                11.1336                 3.4456
 Frc consts  --      0.2462                 2.3413                 0.8016
 IR Inten    --    185.1764                 3.7625                14.9047

                     28                     29                     30
                      A                      A                      A
 Frequencies --    657.9986               708.4074               741.3643
 Red. masses --      7.3342                 7.6822                 4.2787
 Frc consts  --      1.8709                 2.2714                 1.3856
 IR Inten    --     12.2388                13.6943                 0.1993

                     31                     32                     33
                      A                      A                      A
 Frequencies --    766.4265               775.3031               787.0076
 Red. masses --      1.1458                11.1851                 6.6408
 Frc consts  --      0.3966                 3.9612                 2.4234
 IR Inten    --     20.0409                 2.4617                30.3861

                     34                     35                     36
                      A                      A                      A
 Frequencies --    804.0795               854.8307               892.3213
 Red. masses --      8.6210                 1.4443                 1.5403
 Frc consts  --      3.2840                 0.6218                 0.7226
 IR Inten    --      5.9951                75.6573                64.0078

                     37                     38                     39
                      A                      A                      A
 Frequencies --    907.7426               914.2400               939.8961
 Red. masses --      1.1467                 3.1201                 2.0849
 Frc consts  --      0.5567                 1.5365                 1.0851
 IR Inten    --      4.8639                54.5335                37.0148

                     40                     41                     42
                      A                      A                      A
 Frequencies --    995.9320              1014.7588              1039.6633
 Red. masses --      1.3414                 7.7318                 5.9080
 Frc consts  --      0.7839                 4.6909                 3.7625
 IR Inten    --      3.4942                33.5451                60.2637

                     43                     44                     45
                      A                      A                      A
 Frequencies --   1075.4104              1116.9956              1135.2234
 Red. masses --      2.4121                 6.8932                 2.8564
 Frc consts  --      1.6436                 5.0672                 2.1689
 IR Inten    --     10.9803               298.6478               471.9860

                     46                     47                     48
                      A                      A                      A
 Frequencies --   1140.6298              1163.9865              1165.8911
 Red. masses --     12.4431                 2.6522                 2.8809
 Frc consts  --      9.5382                 2.1171                 2.3073
 IR Inten    --    469.4261                48.1850               160.5692

                     49                     50                     51
                      A                      A                      A
 Frequencies --   1191.2673              1196.6521              1252.3687
 Red. masses --      1.6516                 1.6997                 2.7302
 Frc consts  --      1.3809                 1.4341                 2.5230
 IR Inten    --      1.5335               131.3424              1240.8202

                     52                     53                     54
                      A                      A                      A
 Frequencies --   1282.4860              1288.4787              1329.2119
 Red. masses --      2.4766                 1.1845                 2.1875
 Frc consts  --      2.4000                 1.1587                 2.2771
 IR Inten    --    146.9862                 2.8489                45.6446

                     55                     56                     57
                      A                      A                      A
 Frequencies --   1337.7417              1345.0762              1351.3374
 Red. masses --      1.0677                 1.4663                 5.3089
 Frc consts  --      1.1257                 1.5630                 5.7119
 IR Inten    --      1.7307                12.4980               639.2511

                     58                     59                     60
                      A                      A                      A
 Frequencies --   1356.5644              1418.5463              1433.3220
 Red. masses --      2.9906                 1.2757                 2.3077
 Frc consts  --      3.2426                 1.5125                 2.7933
 IR Inten    --     55.5538                 7.2607               284.1151

                     61                     62                     63
                      A                      A                      A
 Frequencies --   1450.0664              1485.8171              1501.0041
 Red. masses --      1.8400                 1.0615                 1.0387
 Frc consts  --      2.2795                 1.3807                 1.3788
 IR Inten    --     94.6506                 1.3881                13.6800

                     64                     65                     66
                      A                      A                      A
 Frequencies --   1509.5574              1522.7095              1554.2795
 Red. masses --      1.0923                 1.0979                 2.8743
 Frc consts  --      1.4665                 1.4999                 4.0910
 IR Inten    --      1.8770                40.4433                44.6469

                     67                     68                     69
                      A                      A                      A
 Frequencies --   1580.9544              1655.8812              1676.0920
 Red. masses --      2.5972                 4.3057                 6.4906
 Frc consts  --      3.8246                 6.9559                10.7432
 IR Inten    --    888.9263               223.6773               304.0482

                     70                     71                     72
                      A                      A                      A
 Frequencies --   1747.3332              3070.1848              3080.3431
 Red. masses --      9.8816                 1.0371                 1.0603
 Frc consts  --     17.7759                 5.7599                 5.9274
 IR Inten    --    833.9024                30.7762                25.9143

                     73                     74                     75
                      A                      A                      A
 Frequencies --   3097.9730              3116.0199              3138.3492
 Red. masses --      1.0570                 1.1042                 1.1048
 Frc consts  --      5.9767                 6.3168                 6.4112
 IR Inten    --     48.6724                 1.2050                36.4525

                     76                     77                     78
                      A                      A                      A
 Frequencies --   3149.5319              3155.5787              3233.2048
 Red. masses --      1.1023                 1.1102                 1.0935
 Frc consts  --      6.4426                 6.5136                 6.7352
 IR Inten    --     40.6797                79.2157                 1.7152

                     79                     80                     81
                      A                      A                      A
 Frequencies --   3250.4139              3297.6507              3615.3622
 Red. masses --      1.0920                 1.0932                 1.0782
 Frc consts  --      6.7972                 7.0042                 8.3036
 IR Inten    --      0.0352                10.2255               169.5780

 - Thermochemistry -
 -------------------
 Temperature   298.150 Kelvin.  Pressure   1.00000 Atm.
 Atom     1 has atomic number  6 and mass  12.00000

 Molecular mass:   281.04304 amu.
 Principal axes and moments of inertia in atomic units:
                           1         2         3
     Eigenvalues --  1644.92578********************
           X            1.00000  -0.00105  -0.00028
           Y            0.00105   1.00000  -0.00012
           Z            0.00028   0.00012   1.00000
 This molecule is an asymmetric top.
 Rotational symmetry number  1.
 Warning -- assumption of classical behavior for rotation
           may cause significant error
 Rotational temperatures (Kelvin)      0.05266     0.00592     0.00544
 Rotational constants (GHZ):           1.09716     0.12332     0.11330
 Zero-point vibrational energy     562075.2 (Joules/Mol)
                                  134.33920 (Kcal/Mol)
 Warning -- explicit consideration of  26 degrees of freedom as
           vibrations may cause significant error
 Vibrational temperatures:     13.10    34.54    78.15    82.76    93.54
          (Kelvin)            122.62   151.38   205.22   236.97   246.77
                              259.86   288.94   341.93   352.41   363.04
                              466.58   492.19   515.72   608.72   654.35
                              657.41   678.66   736.32   808.39   828.49
                              859.56   904.09   946.71  1019.24  1066.66
                             1102.72  1115.49  1132.33  1156.89  1229.91
                             1283.85  1306.04  1315.39  1352.30  1432.92
                             1460.01  1495.84  1547.27  1607.11  1633.33
                             1641.11  1674.71  1677.46  1713.97  1721.71
                             1801.88  1845.21  1853.83  1912.44  1924.71
                             1935.26  1944.27  1951.79  2040.97  2062.23
                             2086.32  2137.76  2159.61  2171.91  2190.84
                             2236.26  2274.64  2382.44  2411.52  2514.02
                             4417.31  4431.92  4457.29  4483.25  4515.38
                             4531.47  4540.17  4651.85  4676.61  4744.58
                             5201.69

 Zero-point correction=                           0.214083 (Hartree/Particle)
 Thermal correction to Energy=                    0.231570
 Thermal correction to Enthalpy=                  0.232514
 Thermal correction to Gibbs Free Energy=         0.164846
 Sum of electronic and zero-point Energies=          -1390.467941
 Sum of electronic and thermal Energies=             -1390.450455
 Sum of electronic and thermal Enthalpies=           -1390.449511
 Sum of electronic and thermal Free Energies=        -1390.517178

                     E (Thermal)             CV                S
                      KCal/Mol        Cal/Mol-Kelvin    Cal/Mol-Kelvin
 Total                  145.312             62.728            142.419
 Electronic               0.000              0.000              0.000
 Translational            0.889              2.981             42.798
 Rotational               0.889              2.981             34.305
 Vibrational            143.535             56.766             65.316
 Vibration     1          0.593              1.987              8.197
 Vibration     2          0.593              1.985              6.271
 Vibration     3          0.596              1.976              4.654
 Vibration     4          0.596              1.974              4.541
 Vibration     5          0.597              1.971              4.299
 Vibration     6          0.601              1.959              3.767
 Vibration     7          0.605              1.945              3.355
 Vibration     8          0.616              1.911              2.768
 Vibration     9          0.623              1.886              2.495
 Vibration    10          0.626              1.878              2.419
 Vibration    11          0.630              1.866              2.322
 Vibration    12          0.638              1.839              2.126
 Vibration    13          0.656              1.783              1.820
 Vibration    14          0.660              1.771              1.767
 Vibration    15          0.664              1.759              1.714
 Vibration    16          0.709              1.627              1.288
 Vibration    17          0.721              1.591              1.202
 Vibration    18          0.733              1.558              1.129
 Vibration    19          0.785              1.420              0.882
 Vibration    20          0.813              1.350              0.781
 Vibration    21          0.815              1.346              0.775
 Vibration    22          0.829              1.313              0.733
 Vibration    23          0.867              1.224              0.629
 Vibration    24          0.918              1.114              0.520
 Vibration    25          0.932              1.084              0.493
 Vibration    26          0.955              1.037              0.454

 Normal termination of Gaussian 09 at Thu Nov 14 18:24:07 2019.
