 Gaussian 09, Revision E.01,
 Gaussian 09:  ES64L-G09RevE.01 30-Nov-2015

 -------------------------------------------------------------
 # MP2/Gen 5D SCF=Tight INT(grid=ultrafine) maxdisk=3489660928
 -------------------------------------------------------------

 ------------------------
 CP19CA_c2.MP2_GTMP2LARGE
 ------------------------
 Symbolic Z-matrix:
 Charge =  0 Multiplicity = 1

                         Standard orientation:
 ---------------------------------------------------------------------
 Center     Atomic      Atomic             Coordinates (Angstroms)
 Number     Number       Type             X           Y           Z
 ---------------------------------------------------------------------
      1          6           0       -0.252700    0.138694   -0.000238
      2          7           0       -1.602254    0.500638   -0.000362
      3          6           0       -2.692282   -0.335962   -0.000271
      4          8           0       -2.671030   -1.538610   -0.000191
      5          8           0       -3.809081    0.409529   -0.000310
      6          6           0       -5.042071   -0.327329   -0.000054
      7          6           0       -6.176119    0.674649    0.000294
      8          6           0       -7.528413   -0.033057    0.000508
      9          6           0        0.680781    1.181167   -0.000141
     10          6           0        2.035791    0.907527   -0.000042
     11          6           0        2.498188   -0.409485   -0.000002
     12          6           0        1.559593   -1.435202   -0.000088
     13          6           0        0.195005   -1.184425   -0.000211
     14          1           0       -1.819157    1.486432   -0.000491
     15          1           0       -5.067905   -0.970050    0.883288
     16          1           0       -5.068320   -0.969925   -0.883478
     17          1           0       -6.082727    1.318282   -0.878598
     18          1           0       -6.082343    1.318085    0.879290
     19          1           0       -7.644908   -0.666714   -0.882024
     20          1           0       -8.347041    0.687547    0.000827
     21          1           0       -7.644475   -0.667001    0.882891
     22          1           0        0.352828    2.214587   -0.000174
     23         17           0        3.136460    2.251797    0.000045
     24          6           0        3.967138   -0.729225    0.000142
     25          1           0        1.904207   -2.461515   -0.000057
     26          1           0       -0.511083   -1.999910   -0.000279
     27          9           0        4.178658   -2.053243    0.000186
     28          9           0        4.592904   -0.235971   -1.077691
     29          9           0        4.592693   -0.235931    1.078082
 ---------------------------------------------------------------------

 SCF Done:  E(RHF) =  -1385.31593094     A.U. after   15 cycles
 E2 =    -0.3335923203D+01 EUMP2 =    -0.13886518541391D+04

 The electronic state is 1-A.
 Alpha  occ. eigenvalues -- -104.85671 -26.33714 -26.33120 -26.33118 -20.61833
 Alpha  occ. eigenvalues --  -20.55170 -15.62558 -11.50807 -11.42619 -11.33076
 Alpha  occ. eigenvalues --  -11.32259 -11.29791 -11.27114 -11.26935 -11.26301
 Alpha  occ. eigenvalues --  -11.24809 -11.23825 -11.22926 -10.58126  -8.04903
 Alpha  occ. eigenvalues --   -8.04726  -8.04723  -1.72774  -1.63169  -1.62751
 Alpha  occ. eigenvalues --   -1.49109  -1.38341  -1.28949  -1.21094  -1.13483
 Alpha  occ. eigenvalues --   -1.08964  -1.06947  -1.02484  -0.97857  -0.94922
 Alpha  occ. eigenvalues --   -0.88705  -0.87409  -0.83451  -0.82159  -0.81884
 Alpha  occ. eigenvalues --   -0.81288  -0.78959  -0.77109  -0.73071  -0.71100
 Alpha  occ. eigenvalues --   -0.70774  -0.70717  -0.68371  -0.67146  -0.65840
 Alpha  occ. eigenvalues --   -0.65619  -0.65489  -0.64347  -0.64324  -0.62187
 Alpha  occ. eigenvalues --   -0.61189  -0.60531  -0.59014  -0.56475  -0.56062
 Alpha  occ. eigenvalues --   -0.55435  -0.53521  -0.52873  -0.51502  -0.50248
 Alpha  occ. eigenvalues --   -0.49792  -0.47910  -0.47556  -0.46738  -0.46190
 Alpha  occ. eigenvalues --   -0.36066  -0.33992
 Alpha virt. eigenvalues --    0.03201   0.04016   0.04876   0.05417   0.05808
 Alpha virt. eigenvalues --    0.06156   0.07998   0.08024   0.08315   0.08399
 Alpha virt. eigenvalues --    0.08823   0.09380   0.10052   0.10252   0.10793

 Mulliken charges:
               1
     1  C   -0.002196
     2  N   -0.429619
     3  C    0.438709
     4  O   -0.448747
     5  O   -0.219577
     6  C    0.072259
     7  C    0.273814
     8  C   -0.445941
     9  C   -0.330330
    10  C    0.254559
    11  C   -0.224169
    12  C   -0.157336
    13  C   -0.420970
    14  H    0.221322
    15  H    0.103107
    16  H    0.103114
    17  H    0.048012
    18  H    0.048007
    19  H    0.058216
    20  H    0.090753
    21  H    0.058218
    22  H    0.141790
    23  Cl  -0.228169
    24  C    1.414592
    25  H    0.184850
    26  H    0.242731
    27  F   -0.337377
    28  F   -0.254811
    29  F   -0.254810
 Sum of Mulliken charges =  -0.00000

 Dipole moment (field-independent basis, Debye):
    X=             -5.7772    Y=              1.7812    Z=             -0.0002  Tot=              6.0456
 Quadrupole moment (field-independent basis, Debye-Ang):
   XX=           -110.1528   YY=           -110.0506   ZZ=           -112.9138
   XY=             -5.2099   XZ=             -0.0015   YZ=             -0.0006

 Normal termination of Gaussian 09 at Mon Dec  9 11:31:22 2019.
