 Q-Chem 5.0, Q-Chem, Inc., Pleasanton, CA (2017)
 Q-Chem 5.0.0 for Intel X86 EM64T Linux

User input:
--------------------------------------------------------------
$molecule
  0 1
    C     -6.2986157710    1.2792363771    0.0196052719
    N     -5.0005518645    0.7634560885    0.0439966176
    C     -3.8183408511    1.4625764263    0.0025357782
    O     -3.6965736178    2.6573374055   -0.0627471432
    O     -2.7980977059    0.5907631029    0.0469194589
    C     -1.4865965736    1.1760108927    0.0113261378
    C     -0.4783794730    0.0490593663    0.0696261333
    C      0.9476633498    0.5920979694    0.0359847812
    C     -6.5744819764    2.6468797541   -0.0538669888
    C     -7.8953922892    3.0707290688   -0.0731993507
    C     -8.9578971681    2.1688472615   -0.0212777884
    C     -8.6648023036    0.8099101308    0.0516854555
    C     -7.3561195453    0.3651864962    0.0721827799
    H     -4.9040983087   -0.2398115233    0.0981706318
    H     -1.3825157253    1.8581318356    0.8585702577
    H     -1.3876330063    1.7622983713   -0.9054173725
    H     -0.6494076791   -0.6258006714   -0.7734539546
    H     -0.6443128755   -0.5304384987    0.9818321872
    H      1.1349757582    1.1591204278   -0.8790768785
    H      1.6760849049   -0.2185130859    0.0779241434
    H      1.1400793239    1.2548780520    0.8831188367
    H     -5.7760323681    3.3716149943   -0.0954365743
    Cl    -8.1843420040    4.7811072467   -0.1652429118
    C    -10.3899547129    2.6270679107   -0.0421712659
    H     -9.4752001997    0.0935962777    0.0928336641
    H     -7.1504007194   -0.6983030214    0.1293471464
    F    -11.2341333454    1.5848498660    0.0168168551
    F    -10.6844115297    3.4221755871    0.9950473943
    F    -10.6904317232    3.3052058912   -1.1577733024

$end

$rem

    JOBTYPE               sp
    METHOD                CCSD(T)
    BASIS                 6-31+G*
    CC_BACKEND            XM

    MEM_TOTAL             60000
$end
--------------------------------------------------------------

             Standard Nuclear Orientation (Angstroms)
    I     Atom           X                Y                Z
 ----------------------------------------------------------------
    1      C      -0.2174313053    -0.7192171433    -0.0001446403
    2      N      -1.6009658092    -0.9126762326    -0.0002249705
    3      C      -2.5831503287     0.0482736502    -0.0000812134
    4      O      -2.4174103495     1.2395222264    -0.0000084294
    5      O      -3.7814496631    -0.5575342074    -0.0000350105
    6      C      -4.9162954303     0.3233415819     0.0000558453
    7      C      -6.1635653727    -0.5335353315     0.0000714741
    8      C      -7.4197092661     0.3334844523     0.0001761975
    9      C       0.3756616085     0.5457688403    -0.0001376077
   10      C       1.7595346460     0.6443662358    -0.0000603455
   11      C       2.5772393481    -0.4853958085     0.0000024554
   12      C       1.9694803071    -1.7378203801    -0.0000171933
   13      C       0.5925226668    -1.8596295125    -0.0000913841
   14      H      -1.9331590460    -1.8657930493    -0.0002056825
   15      H      -4.8641888838     0.9644862736    -0.8832124008
   16      H      -4.8641059357     0.9643979103     0.8833839267
   17      H      -6.1489582997    -1.1837508294     0.8789782906
   18      H      -6.1490431833    -1.1836608483    -0.8789037661
   19      H      -7.4579292923     0.9767364938     0.8826184271
   20      H      -8.3199885568    -0.2821001103     0.0001738727
   21      H      -7.4579987808     0.9768436099    -0.8821844773
   22      H      -0.2276552110     1.4404753782    -0.0001842749
   23      Cl      2.4468126647     2.2396738523    -0.0000519495
   24      C       4.0772501979    -0.3797598542     0.0000908264
   25      H       2.5864054625    -2.6271722855     0.0000276285
   26      H       0.1398742456    -2.8453816928    -0.0001036278
   27      F       4.6495140379    -1.5941937602     0.0000852619
   28      F       4.5413781182     0.2662427445    -1.0778653412
   29      F       4.5412579017     0.2661768773     1.0781390850
 ----------------------------------------------------------------

   16   -1385.0000773727      4.27E-09 Convergence criterion met
 Total energy in the final basis set = -1385.0000773727
 CCSD total energy           = -1387.66846496
 CCSD(T) total energy       = -1387.76797721

                    Orbital Energies (a.u.)
 --------------------------------------------------------------

 Alpha MOs
 -- Occupied --
******* -26.354 -26.347 -26.346 -20.633 -20.569 -15.638 -11.520
-11.437 -11.335 -11.330 -11.304 -11.281 -11.279 -11.267 -11.261
-11.243 -11.234 -10.572  -8.041  -8.038  -8.038  -1.733  -1.637
 -1.632  -1.496  -1.389  -1.294  -1.213  -1.138  -1.093  -1.072
 -1.028  -0.983  -0.952  -0.894  -0.868  -0.839  -0.824  -0.821
 -0.814  -0.802  -0.769  -0.735  -0.712  -0.709  -0.708  -0.688
 -0.668  -0.663  -0.659  -0.649  -0.645  -0.644  -0.630  -0.615
 -0.606  -0.591  -0.568  -0.560  -0.557  -0.536  -0.531  -0.515
 -0.505  -0.499  -0.480  -0.476  -0.463  -0.460  -0.360  -0.341

          Ground-State Mulliken Net Atomic Charges

     Atom                 Charge (a.u.)
  ----------------------------------------
      1 C                    -0.243303
      2 N                    -0.919955
      3 C                     0.738813
      4 O                    -0.587045
      5 O                    -0.480110
      6 C                     0.054808
      7 C                    -0.279252
      8 C                    -0.690363
      9 C                     0.049029
     10 C                     0.448810
     11 C                    -1.210353
     12 C                    -0.033485
     13 C                    -0.450707
     14 H                     0.498971
     15 H                     0.212492
     16 H                     0.212492
     17 H                     0.204278
     18 H                     0.204277
     19 H                     0.196672
     20 H                     0.204400
     21 H                     0.196671
     22 H                     0.334525
     23 Cl                    0.300544
     24 C                     1.691356
     25 H                     0.279454
     26 H                     0.238267
     27 F                    -0.439887
     28 F                    -0.365701
     29 F                    -0.365700
  ----------------------------------------
  Sum of atomic charges =    -0.000000

                    Cartesian Multipole Moments
 -----------------------------------------------------------------
    Charge (ESU x 10^10)
                 0.0000
    Dipole Moment (Debye)
         X      -5.8170      Y      -3.7974      Z      -0.0001
       Tot       6.9468
    Quadrupole Moments (Debye-Ang)
        XX    -109.1166     XY       0.7827     YY    -107.9070
        XZ      -0.0005     YZ      -0.0001     ZZ    -113.7703

 Total job time:  119766.39s(wall), 397780.06s(cpu)
        *  Thank you very much for using Q-Chem.  Have a nice day.  *
