 Gaussian 09, Revision E.01,
 Gaussian 09:  ES64L-G09RevE.01 30-Nov-2015

 -------------------------------------------------------------
 # MP2/Gen 6D SCF=Tight INT(grid=ultrafine) maxdisk=3489660928
 -------------------------------------------------------------

 ------------------
 CP19CA.MP2_6-31pGd
 ------------------
 Symbolic Z-matrix:
 Charge =  0 Multiplicity = 1

                         Standard orientation:
 ---------------------------------------------------------------------
 Center     Atomic      Atomic             Coordinates (Angstroms)
 Number     Number       Type             X           Y           Z
 ---------------------------------------------------------------------
      1          6           0       -0.217431   -0.719217   -0.000145
      2          7           0       -1.600966   -0.912676   -0.000225
      3          6           0       -2.583150    0.048274   -0.000081
      4          8           0       -2.417410    1.239522   -0.000008
      5          8           0       -3.781450   -0.557534   -0.000035
      6          6           0       -4.916295    0.323342    0.000056
      7          6           0       -6.163565   -0.533535    0.000071
      8          6           0       -7.419709    0.333484    0.000176
      9          6           0        0.375662    0.545769   -0.000138
     10          6           0        1.759535    0.644366   -0.000060
     11          6           0        2.577239   -0.485396    0.000002
     12          6           0        1.969480   -1.737820   -0.000017
     13          6           0        0.592523   -1.859630   -0.000091
     14          1           0       -1.933159   -1.865793   -0.000206
     15          1           0       -4.864189    0.964486   -0.883212
     16          1           0       -4.864106    0.964398    0.883384
     17          1           0       -6.148958   -1.183751    0.878978
     18          1           0       -6.149043   -1.183661   -0.878904
     19          1           0       -7.457929    0.976736    0.882618
     20          1           0       -8.319989   -0.282100    0.000174
     21          1           0       -7.457999    0.976844   -0.882184
     22          1           0       -0.227655    1.440475   -0.000184
     23         17           0        2.446813    2.239674   -0.000052
     24          6           0        4.077250   -0.379760    0.000091
     25          1           0        2.586405   -2.627172    0.000028
     26          1           0        0.139874   -2.845382   -0.000104
     27          9           0        4.649514   -1.594194    0.000085
     28          9           0        4.541378    0.266243   -1.077865
     29          9           0        4.541258    0.266177    1.078139
 ---------------------------------------------------------------------

 SCF Done:  E(RHF) =  -1385.00007738     A.U. after   17 cycles
 E2 =    -0.2591372628D+01 EUMP2 =    -0.13875914500116D+04

 The electronic state is 1-A.
 Alpha  occ. eigenvalues -- -104.83930 -26.35372 -26.34650 -26.34649 -20.63310
 Alpha  occ. eigenvalues --  -20.56915 -15.63798 -11.52028 -11.43739 -11.33514
 Alpha  occ. eigenvalues --  -11.33007 -11.30373 -11.28117 -11.27911 -11.26700
 Alpha  occ. eigenvalues --  -11.26099 -11.24342 -11.23435 -10.57189  -8.04133
 Alpha  occ. eigenvalues --   -8.03781  -8.03779  -1.73335  -1.63670  -1.63223
 Alpha  occ. eigenvalues --   -1.49642  -1.38855  -1.29354  -1.21308  -1.13751
 Alpha  occ. eigenvalues --   -1.09258  -1.07249  -1.02769  -0.98326  -0.95185
 Alpha  occ. eigenvalues --   -0.89381  -0.86828  -0.83900  -0.82443  -0.82094
 Alpha  occ. eigenvalues --   -0.81371  -0.80179  -0.76888  -0.73537  -0.71226
 Alpha  occ. eigenvalues --   -0.70871  -0.70847  -0.68808  -0.66812  -0.66302
 Alpha  occ. eigenvalues --   -0.65932  -0.64933  -0.64488  -0.64372  -0.63001
 Alpha  occ. eigenvalues --   -0.61518  -0.60640  -0.59083  -0.56780  -0.55968
 Alpha  occ. eigenvalues --   -0.55741  -0.53612  -0.53085  -0.51475  -0.50453
 Alpha  occ. eigenvalues --   -0.49900  -0.47979  -0.47643  -0.46326  -0.46044
 Alpha  occ. eigenvalues --   -0.36021  -0.34104
 Alpha virt. eigenvalues --    0.05291   0.07430   0.07885   0.08015   0.08317
 Alpha virt. eigenvalues --    0.08761   0.09134   0.09491   0.09867   0.10988
 Alpha virt. eigenvalues --    0.11185   0.11231   0.12265   0.12733   0.12825

 Mulliken charges:
               1
     1  C   -0.243300
     2  N   -0.919955
     3  C    0.738813
     4  O   -0.587045
     5  O   -0.480110
     6  C    0.054807
     7  C   -0.279252
     8  C   -0.690363
     9  C    0.049027
    10  C    0.448811
    11  C   -1.210350
    12  C   -0.033484
    13  C   -0.450709
    14  H    0.498971
    15  H    0.212492
    16  H    0.212492
    17  H    0.204278
    18  H    0.204277
    19  H    0.196672
    20  H    0.204400
    21  H    0.196671
    22  H    0.334524
    23  Cl   0.300543
    24  C    1.691356
    25  H    0.279454
    26  H    0.238267
    27  F   -0.439887
    28  F   -0.365701
    29  F   -0.365700
 Sum of Mulliken charges =  -0.00000

 Dipole moment (field-independent basis, Debye):
    X=             -5.8170    Y=             -3.7974    Z=             -0.0001  Tot=              6.9468
 Quadrupole moment (field-independent basis, Debye-Ang):
   XX=           -109.1166   YY=           -107.9070   ZZ=           -113.7703
   XY=              0.7827   XZ=             -0.0005   YZ=             -0.0001

 Normal termination of Gaussian 09 at Mon Dec  9 10:39:11 2019.
