 Gaussian 09, Revision E.01,
 Gaussian 09:  ES64L-G09RevE.01 30-Nov-2015

 -------------------------------------------------------------
 # MP2/Gen 6D SCF=Tight INT(grid=ultrafine) maxdisk=3489660928
 -------------------------------------------------------------

 ---------------------
 CP19CA_c2.MP2_6-31pGd
 ---------------------
 Symbolic Z-matrix:
 Charge =  0 Multiplicity = 1

                         Standard orientation:
 ---------------------------------------------------------------------
 Center     Atomic      Atomic             Coordinates (Angstroms)
 Number     Number       Type             X           Y           Z
 ---------------------------------------------------------------------
      1          6           0       -0.252700    0.138694   -0.000238
      2          7           0       -1.602254    0.500638   -0.000362
      3          6           0       -2.692282   -0.335962   -0.000271
      4          8           0       -2.671030   -1.538610   -0.000191
      5          8           0       -3.809081    0.409529   -0.000310
      6          6           0       -5.042071   -0.327329   -0.000054
      7          6           0       -6.176119    0.674649    0.000294
      8          6           0       -7.528413   -0.033057    0.000508
      9          6           0        0.680781    1.181167   -0.000141
     10          6           0        2.035791    0.907527   -0.000042
     11          6           0        2.498188   -0.409485   -0.000002
     12          6           0        1.559593   -1.435202   -0.000088
     13          6           0        0.195005   -1.184425   -0.000211
     14          1           0       -1.819157    1.486432   -0.000491
     15          1           0       -5.067905   -0.970050    0.883288
     16          1           0       -5.068320   -0.969925   -0.883478
     17          1           0       -6.082727    1.318282   -0.878598
     18          1           0       -6.082343    1.318085    0.879290
     19          1           0       -7.644908   -0.666714   -0.882024
     20          1           0       -8.347041    0.687547    0.000827
     21          1           0       -7.644475   -0.667001    0.882891
     22          1           0        0.352828    2.214587   -0.000174
     23         17           0        3.136460    2.251797    0.000045
     24          6           0        3.967138   -0.729225    0.000142
     25          1           0        1.904207   -2.461515   -0.000057
     26          1           0       -0.511083   -1.999910   -0.000279
     27          9           0        4.178658   -2.053243    0.000186
     28          9           0        4.592904   -0.235971   -1.077691
     29          9           0        4.592693   -0.235931    1.078082
 ---------------------------------------------------------------------

 SCF Done:  E(RHF) =  -1385.00044448     A.U. after   16 cycles
 E2 =    -0.2590990286D+01 EUMP2 =    -0.13875914347632D+04

 The electronic state is 1-A.
 Alpha  occ. eigenvalues -- -104.84560 -26.35376 -26.34703 -26.34701 -20.63333
 Alpha  occ. eigenvalues --  -20.56958 -15.63815 -11.52057 -11.43775 -11.33846
 Alpha  occ. eigenvalues --  -11.33014 -11.30415 -11.27977 -11.27766 -11.27193
 Alpha  occ. eigenvalues --  -11.25642 -11.24361 -11.23464 -10.57810  -8.04753
 Alpha  occ. eigenvalues --   -8.04402  -8.04402  -1.73375  -1.63715  -1.63258
 Alpha  occ. eigenvalues --   -1.49670  -1.38883  -1.29380  -1.21563  -1.13865
 Alpha  occ. eigenvalues --   -1.09352  -1.07347  -1.02861  -0.98221  -0.95258
 Alpha  occ. eigenvalues --   -0.89058  -0.87777  -0.83731  -0.82440  -0.82135
 Alpha  occ. eigenvalues --   -0.81592  -0.79253  -0.77465  -0.73369  -0.71257
 Alpha  occ. eigenvalues --   -0.70954  -0.70877  -0.68586  -0.67427  -0.65966
 Alpha  occ. eigenvalues --   -0.65928  -0.65679  -0.64513  -0.64414  -0.62413
 Alpha  occ. eigenvalues --   -0.61524  -0.60838  -0.59142  -0.56699  -0.56205
 Alpha  occ. eigenvalues --   -0.55737  -0.53817  -0.53115  -0.51599  -0.50478
 Alpha  occ. eigenvalues --   -0.49905  -0.48005  -0.47692  -0.46881  -0.46222
 Alpha  occ. eigenvalues --   -0.36202  -0.34085
 Alpha virt. eigenvalues --    0.05514   0.07489   0.07848   0.08119   0.08244
 Alpha virt. eigenvalues --    0.08831   0.09060   0.09478   0.09613   0.10941
 Alpha virt. eigenvalues --    0.11152   0.11462   0.12179   0.12481   0.12668

 Mulliken charges:
               1
     1  C   -0.027088
     2  N   -0.923966
     3  C    0.701428
     4  O   -0.583306
     5  O   -0.479939
     6  C    0.051700
     7  C   -0.278994
     8  C   -0.690880
     9  C   -0.730668
    10  C    0.439916
    11  C   -1.090991
    12  C    0.058056
    13  C    0.126250
    14  H    0.499471
    15  H    0.211908
    16  H    0.211894
    17  H    0.204651
    18  H    0.204651
    19  H    0.196405
    20  H    0.204644
    21  H    0.196402
    22  H    0.255993
    23  Cl   0.307044
    24  C    1.513895
    25  H    0.281734
    26  H    0.316147
    27  F   -0.442807
    28  F   -0.366774
    29  F   -0.366776
 Sum of Mulliken charges =  -0.00000

 Dipole moment (field-independent basis, Debye):
    X=             -5.8496    Y=              1.7198    Z=             -0.0002  Tot=              6.0972
 Quadrupole moment (field-independent basis, Debye-Ang):
   XX=           -110.9482   YY=           -110.7050   ZZ=           -113.7746
   XY=             -5.3873   XZ=             -0.0016   YZ=             -0.0006

 Normal termination of Gaussian 09 at Mon Dec  9 10:42:09 2019.
