 Gaussian 09, Revision E.01,
 Gaussian 09:  ES64L-G09RevE.01 30-Nov-2015

 -------------------------------------------------------------
 # MP2/Gen 5D SCF=Tight INT(grid=ultrafine) maxdisk=3489660928
 -------------------------------------------------------------

 ---------------------
 CP19CA.MP2_GTMP2LARGE
 ---------------------
 Symbolic Z-matrix:
 Charge =  0 Multiplicity = 1

                         Standard orientation:
 ---------------------------------------------------------------------
 Center     Atomic      Atomic             Coordinates (Angstroms)
 Number     Number       Type             X           Y           Z
 ---------------------------------------------------------------------
      1          6           0       -0.217431   -0.719217   -0.000145
      2          7           0       -1.600966   -0.912676   -0.000225
      3          6           0       -2.583150    0.048274   -0.000081
      4          8           0       -2.417410    1.239522   -0.000008
      5          8           0       -3.781450   -0.557534   -0.000035
      6          6           0       -4.916295    0.323342    0.000056
      7          6           0       -6.163565   -0.533535    0.000071
      8          6           0       -7.419709    0.333484    0.000176
      9          6           0        0.375662    0.545769   -0.000138
     10          6           0        1.759535    0.644366   -0.000060
     11          6           0        2.577239   -0.485396    0.000002
     12          6           0        1.969480   -1.737820   -0.000017
     13          6           0        0.592523   -1.859630   -0.000091
     14          1           0       -1.933159   -1.865793   -0.000206
     15          1           0       -4.864189    0.964486   -0.883212
     16          1           0       -4.864106    0.964398    0.883384
     17          1           0       -6.148958   -1.183751    0.878978
     18          1           0       -6.149043   -1.183661   -0.878904
     19          1           0       -7.457929    0.976736    0.882618
     20          1           0       -8.319989   -0.282100    0.000174
     21          1           0       -7.457999    0.976844   -0.882184
     22          1           0       -0.227655    1.440475   -0.000184
     23         17           0        2.446813    2.239674   -0.000052
     24          6           0        4.077250   -0.379760    0.000091
     25          1           0        2.586405   -2.627172    0.000028
     26          1           0        0.139874   -2.845382   -0.000104
     27          9           0        4.649514   -1.594194    0.000085
     28          9           0        4.541378    0.266243   -1.077865
     29          9           0        4.541258    0.266177    1.078139
 ---------------------------------------------------------------------

 SCF Done:  E(RHF) =  -1385.31562624     A.U. after   16 cycles
 E2 =    -0.3336278419D+01 EUMP2 =    -0.13886519046616D+04

 The electronic state is 1-A.
 Alpha  occ. eigenvalues -- -104.85068 -26.33701 -26.33060 -26.33058 -20.61811
 Alpha  occ. eigenvalues --  -20.55130 -15.62544 -11.50774 -11.42586 -11.32764
 Alpha  occ. eigenvalues --  -11.32252 -11.29752 -11.27274 -11.27043 -11.25818
 Alpha  occ. eigenvalues --  -11.25258 -11.23808 -11.22899 -10.57528  -8.04304
 Alpha  occ. eigenvalues --   -8.04127  -8.04124  -1.72727  -1.63118  -1.62709
 Alpha  occ. eigenvalues --   -1.49084  -1.38316  -1.28924  -1.20843  -1.13374
 Alpha  occ. eigenvalues --   -1.08876  -1.06847  -1.02396  -0.97959  -0.94848
 Alpha  occ. eigenvalues --   -0.89019  -0.86477  -0.83608  -0.82159  -0.81837
 Alpha  occ. eigenvalues --   -0.81080  -0.79843  -0.76557  -0.73244  -0.71072
 Alpha  occ. eigenvalues --   -0.70679  -0.70679  -0.68577  -0.66578  -0.66042
 Alpha  occ. eigenvalues --   -0.65800  -0.64667  -0.64312  -0.64288  -0.62734
 Alpha  occ. eigenvalues --   -0.61224  -0.60326  -0.58955  -0.56544  -0.55827
 Alpha  occ. eigenvalues --   -0.55461  -0.53312  -0.52838  -0.51383  -0.50225
 Alpha  occ. eigenvalues --   -0.49794  -0.47886  -0.47509  -0.46206  -0.46016
 Alpha  occ. eigenvalues --   -0.35893  -0.34011
 Alpha virt. eigenvalues --    0.02902   0.03825   0.05016   0.05447   0.05499
 Alpha virt. eigenvalues --    0.06575   0.07383   0.08152   0.08495   0.08713
 Alpha virt. eigenvalues --    0.08803   0.09507   0.09789   0.10634   0.10887

 Mulliken charges:
               1
     1  C   -0.357512
     2  N   -0.425134
     3  C    0.438836
     4  O   -0.448730
     5  O   -0.213533
     6  C    0.097997
     7  C    0.269756
     8  C   -0.445920
     9  C   -0.505276
    10  C    0.524423
    11  C   -0.575435
    12  C   -0.279348
    13  C    0.083038
    14  H    0.225449
    15  H    0.102894
    16  H    0.102902
    17  H    0.047675
    18  H    0.047676
    19  H    0.058421
    20  H    0.090770
    21  H    0.058420
    22  H    0.280951
    23  Cl  -0.224408
    24  C    1.559481
    25  H    0.182008
    26  H    0.128135
    27  F   -0.325365
    28  F   -0.249083
    29  F   -0.249087
 Sum of Mulliken charges =  -0.00000

 Dipole moment (field-independent basis, Debye):
    X=             -5.7753    Y=             -3.6958    Z=             -0.0001  Tot=              6.8566
 Quadrupole moment (field-independent basis, Debye-Ang):
   XX=           -108.5176   YY=           -107.2265   ZZ=           -112.9149
   XY=              1.1822   XZ=             -0.0005   YZ=             -0.0000

 Normal termination of Gaussian 09 at Mon Dec  9 11:27:22 2019.
