 Gaussian 09, Revision E.01,

 ----------------------------------------------------------------------
 # M062X/6-311+G* SCF=Tight INT(grid=ultrafine) OPT IOP(2/17=4) Empiric
 alDispersion=GD3 maxdisk=2147483648
 ----------------------------------------------------------------------

 --------------------------------
 CP19CA_c2.M062X_6-311pGd_opt_GD3
 --------------------------------
 Symbolic Z-matrix:
 Charge =  0 Multiplicity = 1

 SCF Done:  E(RM062X) =  -1390.67250207     A.U. after   15 cycles
 Optimization completed.
    -- Stationary point found.
 Normal termination of Gaussian 09 at Thu Nov 14 17:16:07 2019.
 Gaussian 09:  ES64L-G09RevE.01 30-Nov-2015

 ----------------------------------------------------------------------
 # M062X/6-311+G* SCF=Tight INT(grid=ultrafine) EmpiricalDispersion=GD3
  Freq=Noraman maxdisk=2147483648 geom=check guess=read IOP(2/17=4)
 ----------------------------------------------------------------------

 --------------------------------
 CP19CA_c2.M062X_6-311pGd_opt_GD3
 --------------------------------
 Structure from the checkpoint file:  "CP19CA_c2.M062X_6-311pGd_opt_GD3.chk"
 Charge =  0 Multiplicity = 1

                         Standard orientation:
 ---------------------------------------------------------------------
 Center     Atomic      Atomic             Coordinates (Angstroms)
 Number     Number       Type             X           Y           Z
 ---------------------------------------------------------------------
      1          6           0       -0.252700    0.138694   -0.000238
      2          7           0       -1.602254    0.500638   -0.000362
      3          6           0       -2.692282   -0.335962   -0.000271
      4          8           0       -2.671030   -1.538610   -0.000191
      5          8           0       -3.809081    0.409529   -0.000310
      6          6           0       -5.042071   -0.327329   -0.000054
      7          6           0       -6.176119    0.674649    0.000294
      8          6           0       -7.528413   -0.033057    0.000508
      9          6           0        0.680781    1.181167   -0.000141
     10          6           0        2.035791    0.907527   -0.000042
     11          6           0        2.498188   -0.409485   -0.000002
     12          6           0        1.559593   -1.435202   -0.000088
     13          6           0        0.195005   -1.184425   -0.000211
     14          1           0       -1.819157    1.486432   -0.000491
     15          1           0       -5.067905   -0.970050    0.883288
     16          1           0       -5.068320   -0.969925   -0.883478
     17          1           0       -6.082727    1.318282   -0.878598
     18          1           0       -6.082343    1.318085    0.879290
     19          1           0       -7.644908   -0.666714   -0.882024
     20          1           0       -8.347041    0.687547    0.000827
     21          1           0       -7.644475   -0.667001    0.882891
     22          1           0        0.352828    2.214587   -0.000174
     23         17           0        3.136460    2.251797    0.000045
     24          6           0        3.967138   -0.729225    0.000142
     25          1           0        1.904207   -2.461515   -0.000057
     26          1           0       -0.511083   -1.999910   -0.000279
     27          9           0        4.178658   -2.053243    0.000186
     28          9           0        4.592904   -0.235971   -1.077691
     29          9           0        4.592693   -0.235931    1.078082
 ---------------------------------------------------------------------

 SCF Done:  E(RM062X) =  -1390.67250207     A.U. after    2 cycles

 The electronic state is 1-A.
 Alpha  occ. eigenvalues -- -102.69095 -25.27945 -25.27377 -25.27376 -19.68593
 Alpha  occ. eigenvalues --  -19.62559 -14.81514 -10.80657 -10.72164 -10.63711
 Alpha  occ. eigenvalues --  -10.62992 -10.60906 -10.58695 -10.57900 -10.57877
 Alpha  occ. eigenvalues --  -10.56455 -10.55267 -10.54216  -9.83377  -7.55899
 Alpha  occ. eigenvalues --   -7.55204  -7.55188  -1.47121  -1.37750  -1.37349
 Alpha  occ. eigenvalues --   -1.26685  -1.16771  -1.09088  -1.02337  -0.95941
 Alpha  occ. eigenvalues --   -0.91936  -0.89939  -0.86064  -0.82949  -0.80038
 Alpha  occ. eigenvalues --   -0.75096  -0.74141  -0.70348  -0.69596  -0.69383
 Alpha  occ. eigenvalues --   -0.68546  -0.66739  -0.65907  -0.62324  -0.60605
 Alpha  occ. eigenvalues --   -0.58002  -0.57587  -0.57226  -0.56242  -0.55234
 Alpha  occ. eigenvalues --   -0.55157  -0.53416  -0.53274  -0.52619  -0.51859
 Alpha  occ. eigenvalues --   -0.51214  -0.51014  -0.50471  -0.48191  -0.47172
 Alpha  occ. eigenvalues --   -0.45977  -0.44964  -0.44701  -0.43874  -0.42159
 Alpha  occ. eigenvalues --   -0.41899  -0.39745  -0.39329  -0.39328  -0.38208
 Alpha  occ. eigenvalues --   -0.32631  -0.30442
 Alpha virt. eigenvalues --   -0.01506  -0.01084  -0.00406   0.01169   0.01904
 Alpha virt. eigenvalues --    0.02548   0.02768   0.02937   0.03286   0.04728
 Alpha virt. eigenvalues --    0.04999   0.05126   0.05830   0.06226   0.06477

 Mulliken charges:
               1
     1  C   -0.745275
     2  N   -0.473024
     3  C    0.029434
     4  O   -0.283084
     5  O   -0.055589
     6  C   -0.339500
     7  C   -0.138732
     8  C   -1.027355
     9  C   -0.564655
    10  C    0.993674
    11  C   -1.124791
    12  C   -0.053609
    13  C   -0.064494
    14  H    0.401817
    15  H    0.268616
    16  H    0.268610
    17  H    0.259277
    18  H    0.259281
    19  H    0.259818
    20  H    0.274699
    21  H    0.259814
    22  H    0.258550
    23  Cl   0.453692
    24  C    0.508955
    25  H    0.283832
    26  H    0.307317
    27  F   -0.140070
    28  F   -0.038602
    29  F   -0.038607
 Sum of Mulliken charges =  -0.00000

 Dipole moment (field-independent basis, Debye):
    X=             -5.7135    Y=              1.7397    Z=             -0.0002  Tot=              5.9725
 Quadrupole moment (field-independent basis, Debye-Ang):
   XX=           -109.2919   YY=           -109.5088   ZZ=           -113.3177
   XY=             -4.7176   XZ=             -0.0015   YZ=             -0.0006

  Exact polarizability: 222.207   9.036 152.699   0.003   0.001  96.127
 Approx polarizability: 216.022   8.842 204.561   0.006  -0.000 127.037

                      1                      2                      3
                      A                      A                      A
 Frequencies --     20.2974                26.8938                53.1806
 Red. masses --      4.4043                 3.2357                11.1179
 Frc consts  --      0.0011                 0.0014                 0.0185
 IR Inten    --      0.4953                 1.2107                 0.0737

                      4                      5                      6
                      A                      A                      A
 Frequencies --     59.4768                64.8998                74.0378
 Red. masses --      5.0780                 4.8792                 2.7926
 Frc consts  --      0.0106                 0.0121                 0.0090
 IR Inten    --      0.0123                 0.2831                 3.3280

                      7                      8                      9
                      A                      A                      A
 Frequencies --    106.9114               142.3666               169.3893
 Red. masses --      5.4119                 7.8446                10.7542
 Frc consts  --      0.0364                 0.0937                 0.1818
 IR Inten    --      0.6539                 2.0490                 0.6096

                     10                     11                     12
                      A                      A                      A
 Frequencies --    171.2191               183.6639               201.1738
 Red. masses --      3.5885                 5.7793                 6.9978
 Frc consts  --      0.0620                 0.1149                 0.1669
 IR Inten    --      1.5673                 1.6399                 0.6033

                     13                     14                     15
                      A                      A                      A
 Frequencies --    239.0472               246.1178               252.3711
 Red. masses --      1.2345                 4.7687                 6.4640
 Frc consts  --      0.0416                 0.1702                 0.2426
 IR Inten    --      0.0483                 0.1947                 1.8967

                     16                     17                     18
                      A                      A                      A
 Frequencies --    325.3753               342.4273               358.5843
 Red. masses --     15.0589                 5.5964                 5.6473
 Frc consts  --      0.9393                 0.3866                 0.4278
 IR Inten    --      0.7363                 6.2359                20.3011

                     19                     20                     21
                      A                      A                      A
 Frequencies --    423.9551               453.7922               455.7108
 Red. masses --      6.4818                 3.8460                 6.5675
 Frc consts  --      0.6864                 0.4666                 0.8036
 IR Inten    --      1.3625                 0.7492                 4.8013

                     22                     23                     24
                      A                      A                      A
 Frequencies --    473.1614               514.2261               555.5444
 Red. masses --      8.3663                 6.4227                 1.5869
 Frc consts  --      1.1036                 1.0006                 0.2886
 IR Inten    --      4.4123                19.5843                43.9430

                     25                     26                     27
                      A                      A                      A
 Frequencies --    566.7093               599.1244               631.8411
 Red. masses --      2.9610                11.1751                 3.5478
 Frc consts  --      0.5603                 2.3634                 0.8345
 IR Inten    --     36.3776                 2.2761                11.6074

                     28                     29                     30
                      A                      A                      A
 Frequencies --    663.6885               713.9912               742.2361
 Red. masses --      7.3359                 7.6080                 4.3392
 Frc consts  --      1.9038                 2.2851                 1.4085
 IR Inten    --      7.4604                 7.9948                 0.3370

                     31                     32                     33
                      A                      A                      A
 Frequencies --    762.4692               779.8813               790.6354
 Red. masses --      1.1154                11.2621                 8.0847
 Frc consts  --      0.3821                 4.0358                 2.9776
 IR Inten    --      4.8190                 3.3024                16.0992

                     34                     35                     36
                      A                      A                      A
 Frequencies --    808.5620               869.7822               877.5179
 Red. masses --      8.6977                 1.3600                 1.5950
 Frc consts  --      3.3503                 0.6062                 0.7236
 IR Inten    --      1.3662                 3.9923                64.7501

                     37                     38                     39
                      A                      A                      A
 Frequencies --    902.5486               918.0261               944.2416
 Red. masses --      1.1536                 2.7547                 2.3168
 Frc consts  --      0.5536                 1.3678                 1.2170
 IR Inten    --      2.4320                21.1764                26.8866

                     40                     41                     42
                      A                      A                      A
 Frequencies --   1004.0119              1028.9024              1046.6869
 Red. masses --      1.3166                 7.0525                 5.5965
 Frc consts  --      0.7819                 4.3988                 3.6125
 IR Inten    --      0.1821                16.4970                35.6431

                     43                     44                     45
                      A                      A                      A
 Frequencies --   1076.0582              1132.5881              1146.6905
 Red. masses --      2.5449                 5.4468                 2.6064
 Frc consts  --      1.7362                 4.1165                 2.0193
 IR Inten    --      7.9796               124.6871               243.1420

                     46                     47                     48
                      A                      A                      A
 Frequencies --   1169.3743              1181.8263              1197.0568
 Red. masses --      2.4390                 1.9028                 1.6672
 Frc consts  --      1.9651                 1.5658                 1.4076
 IR Inten    --      8.0095                58.4244                 0.8275

                     49                     50                     51
                      A                      A                      A
 Frequencies --   1207.1169              1224.7539              1254.3190
 Red. masses --     12.9248                 2.9946                 2.0533
 Frc consts  --     11.0962                 2.6466                 1.9034
 IR Inten    --    279.1840               134.3540               464.1855

                     52                     53                     54
                      A                      A                      A
 Frequencies --   1287.1768              1293.9859              1326.6758
 Red. masses --      2.5742                 1.1841                 2.8355
 Frc consts  --      2.5128                 1.1682                 2.9404
 IR Inten    --    566.5198                 0.7862                50.7779

                     55                     56                     57
                      A                      A                      A
 Frequencies --   1339.1625              1348.7323              1351.5162
 Red. masses --      1.0666                 1.4322                 3.6898
 Frc consts  --      1.1270                 1.5350                 3.9710
 IR Inten    --      0.3913                 6.9722                79.9969

                     58                     59                     60
                      A                      A                      A
 Frequencies --   1361.6663              1432.8506              1435.7251
 Red. masses --      3.8073                 1.3386                 1.9677
 Frc consts  --      4.1592                 1.6192                 2.3898
 IR Inten    --    260.8661                 7.1992               256.5056

                     61                     62                     63
                      A                      A                      A
 Frequencies --   1453.2736              1510.4370              1525.4690
 Red. masses --      2.0321                 1.0629                 1.0808
 Frc consts  --      2.5286                 1.4287                 1.4819
 IR Inten    --     96.3882                 1.5342                 0.7520

                     64                     65                     66
                      A                      A                      A
 Frequencies --   1525.6138              1538.0838              1554.8250
 Red. masses --      1.0368                 1.1077                 2.8225
 Frc consts  --      1.4218                 1.5439                 4.0202
 IR Inten    --     10.4945                45.9247                33.8222

                     67                     68                     69
                      A                      A                      A
 Frequencies --   1592.2897              1655.8636              1686.7822
 Red. masses --      2.7821                 4.7478                 6.7279
 Frc consts  --      4.1560                 7.6699                11.2784
 IR Inten    --    618.2500               129.6683               222.2773

                     70                     71                     72
                      A                      A                      A
 Frequencies --   1852.5115              3072.0086              3079.7938
 Red. masses --     10.6131                 1.0381                 1.0595
 Frc consts  --     21.4593                 5.7720                 5.9212
 IR Inten    --    305.6024                18.1888                 6.1307

                     73                     74                     75
                      A                      A                      A
 Frequencies --   3091.1030              3112.6434              3134.7393
 Red. masses --      1.0574                 1.1044                 1.1062
 Frc consts  --      5.9528                 6.3044                 6.4046
 IR Inten    --     34.4683                 0.0530                 0.6736

                     76                     77                     78
                      A                      A                      A
 Frequencies --   3148.9018              3152.8821              3221.6370
 Red. masses --      1.1069                 1.1015                 1.0921
 Frc consts  --      6.4667                 6.4513                 6.6782
 IR Inten    --     56.7453                23.5446                 1.8499

                     79                     80                     81
                      A                      A                      A
 Frequencies --   3244.8433              3291.6619              3656.2739
 Red. masses --      1.0911                 1.0929                 1.0772
 Frc consts  --      6.7685                 6.9768                 8.4843
 IR Inten    --      0.2183                 9.0341                46.7344

 - Thermochemistry -
 -------------------
 Temperature   298.150 Kelvin.  Pressure   1.00000 Atm.
 Atom     1 has atomic number  6 and mass  12.00000

 Molecular mass:   281.04304 amu.
 Principal axes and moments of inertia in atomic units:
                           1         2         3
     Eigenvalues --  1647.74851********************
           X            1.00000  -0.00091  -0.00000
           Y            0.00091   1.00000   0.00000
           Z            0.00000  -0.00000   1.00000
 This molecule is an asymmetric top.
 Rotational symmetry number  1.
 Warning -- assumption of classical behavior for rotation
           may cause significant error
 Rotational temperatures (Kelvin)      0.05256     0.00592     0.00544
 Rotational constants (GHZ):           1.09528     0.12340     0.11333
 Zero-point vibrational energy     564838.3 (Joules/Mol)
                                  134.99960 (Kcal/Mol)
 Warning -- explicit consideration of  26 degrees of freedom as
           vibrations may cause significant error
 Vibrational temperatures:     29.20    38.69    76.51    85.57    93.38
          (Kelvin)            106.52   153.82   204.83   243.71   246.35
                              264.25   289.44   343.94   354.11   363.11
                              468.14   492.68   515.92   609.98   652.90
                              655.67   680.77   739.86   799.30   815.37
                              862.01   909.08   954.90  1027.27  1067.91
                             1097.02  1122.07  1137.55  1163.34  1251.42
                             1262.55  1298.56  1320.83  1358.55  1444.55
                             1480.36  1505.95  1548.21  1629.54  1649.83
                             1682.47  1700.38  1722.30  1736.77  1762.15
                             1804.68  1851.96  1861.75  1908.79  1926.75
                             1940.52  1944.53  1959.13  2061.55  2065.69
                             2090.93  2173.18  2194.81  2195.02  2212.96
                             2237.04  2290.95  2382.42  2426.90  2665.35
                             4419.93  4431.13  4447.40  4478.39  4510.19
                             4530.56  4536.29  4635.21  4668.60  4735.96
                             5260.56

 Zero-point correction=                           0.215136 (Hartree/Particle)
 Thermal correction to Energy=                    0.232568
 Thermal correction to Enthalpy=                  0.233513
 Thermal correction to Gibbs Free Energy=         0.166679
 Sum of electronic and zero-point Energies=          -1390.457367
 Sum of electronic and thermal Energies=             -1390.439934
 Sum of electronic and thermal Enthalpies=           -1390.438990
 Sum of electronic and thermal Free Energies=        -1390.505823

                     E (Thermal)             CV                S
                      KCal/Mol        Cal/Mol-Kelvin    Cal/Mol-Kelvin
 Total                  145.939             62.503            140.662
 Electronic               0.000              0.000              0.000
 Translational            0.889              2.981             42.798
 Rotational               0.889              2.981             34.306
 Vibrational            144.161             56.541             63.558
 Vibration     1          0.593              1.986              6.605
 Vibration     2          0.593              1.984              6.046
 Vibration     3          0.596              1.976              4.695
 Vibration     4          0.597              1.974              4.474
 Vibration     5          0.597              1.971              4.302
 Vibration     6          0.599              1.966              4.043
 Vibration     7          0.606              1.944              3.324
 Vibration     8          0.616              1.911              2.772
 Vibration     9          0.625              1.880              2.442
 Vibration    10          0.626              1.878              2.422
 Vibration    11          0.631              1.862              2.291
 Vibration    12          0.638              1.838              2.122
 Vibration    13          0.657              1.781              1.810
 Vibration    14          0.661              1.769              1.758
 Vibration    15          0.664              1.759              1.714
 Vibration    16          0.709              1.625              1.283
 Vibration    17          0.722              1.591              1.201
 Vibration    18          0.733              1.558              1.128
 Vibration    19          0.786              1.418              0.879
 Vibration    20          0.812              1.353              0.784
 Vibration    21          0.814              1.348              0.779
 Vibration    22          0.830              1.310              0.729
 Vibration    23          0.869              1.218              0.623
 Vibration    24          0.911              1.128              0.533
 Vibration    25          0.923              1.103              0.511
 Vibration    26          0.957              1.034              0.451

 Optimization completed.
    -- Stationary point found.
 Normal termination of Gaussian 09 at Thu Nov 14 18:15:19 2019.
