 Q-Chem 5.0, Q-Chem, Inc., Pleasanton, CA (2017)
 Q-Chem 5.0.0 for Intel X86 EM64T Linux

User input:
--------------------------------------------------------------
$molecule
  0 1
    C     -6.2412937515    1.4778218611    0.0318125601
    N     -4.9682048194    0.9047580993    0.0878559220
    C     -3.7576631722    1.5436920287   -0.0321938430
    O     -3.5844591515    2.7208668564   -0.2084743709
    O     -2.7761420705    0.6342357795    0.0796269158
    C     -1.4406480429    1.1525674080   -0.0253083220
    C     -0.4835112362   -0.0099556028    0.1245375878
    C      0.9649862175    0.4604875937    0.0241088620
    C     -7.3306135739    0.6124982045    0.1825897734
    C     -8.6233439207    1.1002694459    0.1394542285
    C     -8.8669297093    2.4609022731   -0.0546461065
    C     -7.7752689410    3.3090416346   -0.2029441508
    C     -6.4693977812    2.8420197283   -0.1631630788
    H     -4.9133602820   -0.0926565903    0.2327463223
    H     -1.2922805540    1.9037091727    0.7543226110
    H     -1.3301125624    1.6473113833   -0.9933299433
    H     -0.6985850315   -0.7503373463   -0.6507132677
    H     -0.6609026345   -0.4951625604    1.0881469967
    H      1.1631388792    0.9319383363   -0.9415130184
    H      1.6563445042   -0.3760627020    0.1319492902
    H      1.2009389010    1.1882284268    0.8042853671
    H     -7.1738900918   -0.4494692592    0.3348127952
    Cl    -9.9263445752   -0.0323572718    0.3340808615
    C    -10.2646337929    3.0122280647   -0.1047576986
    H     -7.9495783869    4.3667860877   -0.3541664202
    H     -5.6410804660    3.5228606594   -0.2811569609
    F    -10.2595614937    4.3388366204   -0.2993042742
    F    -10.9849955341    2.4764675991   -1.1000699104
    F    -10.9381569263    2.7890140694    1.0324112721

$end

$rem

    JOBTYPE               sp
    METHOD                CCSD(T)
    BASIS                 6-31+G*
    CC_BACKEND            XM

    MEM_TOTAL             60000
$end
--------------------------------------------------------------

             Standard Nuclear Orientation (Angstroms)
    I     Atom           X                Y                Z
 ----------------------------------------------------------------
    1      C       0.2526998783    -0.1386939849    -0.0002377713
    2      N       1.6022535255    -0.5006377657    -0.0003619749
    3      C       2.6922815226     0.3359616303    -0.0002711529
    4      O       2.6710298180     1.5386101204    -0.0001912730
    5      O       3.8090811988    -0.4095292859    -0.0003103800
    6      C       5.0420709626     0.3273286079    -0.0000544211
    7      C       6.1761187122    -0.6746494328     0.0002944979
    8      C       7.5284129373     0.0330566407     0.0005083480
    9      C      -0.6807806376    -1.1811672897    -0.0001407646
   10      C      -2.0357913227    -0.9075265725    -0.0000418684
   11      C      -2.4981883517     0.4094850648    -0.0000015370
   12      C      -1.5595934969     1.4352021850    -0.0000875106
   13      C      -0.1950048582     1.1844247691    -0.0002113775
   14      H       1.8191565155    -1.4864320092    -0.0004913350
   15      H       5.0679052018     0.9700498496     0.8832876710
   16      H       5.0683199143     0.9699246075    -0.8834778342
   17      H       6.0827266326    -1.3182816402    -0.8785975623
   18      H       6.0823432823    -1.3180851529     0.8792900814
   19      H       7.6449082967     0.6667142281    -0.8820236849
   20      H       8.3470413963    -0.6875469814     0.0008271063
   21      H       7.6444753013     0.6670010240     0.8828913797
   22      H      -0.3528283138    -2.2145869839    -0.0001739096
   23      Cl     -3.1364597565    -2.2517968225     0.0000450205
   24      C      -3.9671384171     0.7292250998     0.0001421566
   25      H      -1.9042067550     2.4615145094    -0.0000572718
   26      H       0.5110829899     1.9999101771    -0.0002785068
   27      F      -4.1786577780     2.0532431950     0.0001863243
   28      F      -4.5929042144     0.2359707375    -1.0776908614
   29      F      -4.5926927839     0.2359307043     1.0780816449
 ----------------------------------------------------------------

   15   -1385.0004444656      9.86E-09 Convergence criterion met
 Total energy in the final basis set = -1385.0004444656
 CCSD total energy           = -1387.66852849
 CCSD(T) total energy       = -1387.76798344

                    Orbital Energies (a.u.)
 --------------------------------------------------------------

 Alpha MOs
 -- Occupied --
******* -26.354 -26.347 -26.347 -20.633 -20.570 -15.638 -11.521
-11.438 -11.338 -11.330 -11.304 -11.280 -11.278 -11.272 -11.256
-11.244 -11.235 -10.578  -8.048  -8.044  -8.044  -1.734  -1.637
 -1.633  -1.497  -1.389  -1.294  -1.216  -1.139  -1.094  -1.073
 -1.029  -0.982  -0.953  -0.891  -0.878  -0.837  -0.824  -0.821
 -0.816  -0.793  -0.775  -0.734  -0.713  -0.710  -0.709  -0.686
 -0.674  -0.660  -0.659  -0.657  -0.645  -0.644  -0.624  -0.615
 -0.608  -0.591  -0.567  -0.562  -0.557  -0.538  -0.531  -0.516
 -0.505  -0.499  -0.480  -0.477  -0.469  -0.462  -0.362  -0.341

          Ground-State Mulliken Net Atomic Charges

     Atom                 Charge (a.u.)
  ----------------------------------------
      1 C                    -0.027094
      2 N                    -0.923966
      3 C                     0.701426
      4 O                    -0.583306
      5 O                    -0.479939
      6 C                     0.051700
      7 C                    -0.278993
      8 C                    -0.690880
      9 C                    -0.730668
     10 C                     0.439910
     11 C                    -1.090981
     12 C                     0.058059
     13 C                     0.126248
     14 H                     0.499471
     15 H                     0.211908
     16 H                     0.211894
     17 H                     0.204651
     18 H                     0.204651
     19 H                     0.196405
     20 H                     0.204644
     21 H                     0.196402
     22 H                     0.255993
     23 Cl                    0.307044
     24 C                     1.513895
     25 H                     0.281734
     26 H                     0.316147
     27 F                    -0.442807
     28 F                    -0.366774
     29 F                    -0.366776
  ----------------------------------------
  Sum of atomic charges =    -0.000000

                    Cartesian Multipole Moments
 -----------------------------------------------------------------
    Charge (ESU x 10^10)
                 0.0000
    Dipole Moment (Debye)
         X       5.8496      Y      -1.7198      Z      -0.0002
       Tot       6.0972
    Quadrupole Moments (Debye-Ang)
        XX    -110.9482     XY      -5.3873     YY    -110.7050
        XZ       0.0016     YZ       0.0006     ZZ    -113.7746

 Total job time:  90313.12s(wall), 300694.79s(cpu)
        *  Thank you very much for using Q-Chem.  Have a nice day.  *
