 Gaussian 16, Revision C.01,

 ----------------------------------------------------------------------
 # M062X/6-311+G* SCF=Tight INT(grid=ultrafine) OPT=CalcFC IOP(2/17=4)
 EmpiricalDispersion=GD3 SCRF=(SMD,Solvent=n-Pentadecane) MaxDisk=10000
 MB
 ----------------------------------------------------------------------

 -------------------------------------------------
 CP19CA_carboxy.M062X_6-311pGd_opt_Pentadecane_GD3
 -------------------------------------------------
 Symbolic Z-matrix:
 Charge = -1 Multiplicity = 1

 SCF Done:  E(RM062X) =  -1658.51602326     A.U. after   16 cycles
 SCF Done:  E(RM062X) =  -1658.54002142     A.U. after   14 cycles
 SCF Done:  E(RM062X) =  -1658.55709714     A.U. after   15 cycles
 SCF Done:  E(RM062X) =  -1658.56679656     A.U. after   14 cycles
 SCF Done:  E(RM062X) =  -1658.54586257     A.U. after   15 cycles
 SCF Done:  E(RM062X) =  -1658.56959240     A.U. after   15 cycles
 SCF Done:  E(RM062X) =  -1658.57049558     A.U. after   14 cycles
 SCF Done:  E(RM062X) =  -1658.56301296     A.U. after   16 cycles
 SCF Done:  E(RM062X) =  -1658.57077243     A.U. after   14 cycles
 SCF Done:  E(RM062X) =  -1658.57025625     A.U. after   16 cycles
 SCF Done:  E(RM062X) =  -1658.57121473     A.U. after   11 cycles
 SCF Done:  E(RM062X) =  -1658.57121429     A.U. after   11 cycles
 SCF Done:  E(RM062X) =  -1658.57121438     A.U. after    9 cycles
 SCF Done:  E(RM062X) =  -1658.57121494     A.U. after   11 cycles
 SCF Done:  E(RM062X) =  -1658.57121479     A.U. after   11 cycles
 SCF Done:  E(RM062X) =  -1658.57121497     A.U. after   11 cycles
 SCF Done:  E(RM062X) =  -1658.57121526     A.U. after   10 cycles
 SCF Done:  E(RM062X) =  -1658.57121526     A.U. after    9 cycles
 SCF Done:  E(RM062X) =  -1658.57121519     A.U. after    9 cycles
 Optimization completed.
    -- Stationary point found.
 Normal termination of Gaussian 16 at Mon Mar 22 14:39:43 2021.
 Gaussian 16:  ES64L-G16RevC.01  3-Jul-2019

 ----------------------------------------------------------------------
 # M062X/6-311+G* SCF=Tight INT(grid=ultrafine) EmpiricalDispersion=GD3
  SCRF=(SMD,Solvent=n-Pentadecane) Freq=Noraman MaxDisk=10000MB geom=ch
 eck guess=read IOP(2/17=4)
 ----------------------------------------------------------------------

 -------------------------------------------------
 CP19CA_carboxy.M062X_6-311pGd_opt_Pentadecane_GD3
 -------------------------------------------------
 Structure from the checkpoint file:  "CP19CA_carboxy.M062X_6-311pGd_opt_Pentadecane_GD3.chk"
 Charge = -1 Multiplicity = 1

                         Standard orientation:
 ---------------------------------------------------------------------
 Center     Atomic      Atomic             Coordinates (Angstroms)
 Number     Number       Type             X           Y           Z
 ---------------------------------------------------------------------
      1          6           0       -0.381331   -0.229620   -0.013381
      2          7           0        0.997869   -0.387275   -0.025338
      3          6           0        1.669904   -1.569349   -0.001151
      4          8           0        1.197114   -2.686645    0.046835
      5          8           0        2.992809   -1.333321   -0.036768
      6          6           0        3.836471   -2.482437    0.016534
      7          6           0        5.269174   -1.993002   -0.025473
      8          6           0        6.250747   -3.158011    0.043496
      9          6           0       -1.293352   -1.295811   -0.018189
     10          6           0       -2.651568   -1.025921   -0.010551
     11          6           0       -3.148640    0.275547    0.001163
     12          6           0       -2.226210    1.324817    0.006781
     13          6           0       -0.865545    1.089035   -0.000104
     14          1           0        1.572800    0.492315   -0.050541
     15          1           0        3.612381   -3.138654   -0.829580
     16          1           0        3.631434   -3.040762    0.934873
     17          1           0        5.431554   -1.304129    0.807799
     18          1           0        5.419524   -1.418326   -0.943312
     19          1           0        6.127563   -3.727826    0.968749
     20          1           0        7.283361   -2.805148    0.008128
     21          1           0        6.108360   -3.848742   -0.792338
     22          1           0       -0.947852   -2.317555   -0.026068
     23         17           0       -3.741250   -2.396612   -0.016909
     24          6           0       -4.616999    0.561735    0.010180
     25          1           0       -2.582078    2.347844    0.018100
     26          1           0       -0.165975    1.924384    0.010100
     27          9           0       -4.870238    1.880797    0.018516
     28          9           0       -5.256076    0.063556   -1.066007
     29          9           0       -5.244643    0.051915    1.087690
     30          8           0        1.141631    3.620961    0.094680
     31          8           0        2.511130    1.856259   -0.101243
     32          6           0        2.263100    3.090144   -0.011544
     33          6           0        3.476681    4.037267   -0.058832
     34          6           0        4.827086    3.344647    0.056854
     35          1           0        3.343393    4.781545    0.731541
     36          1           0        3.407306    4.591053   -1.001969
     37          1           0        4.908380    2.803479    1.002304
     38          1           0        5.650583    4.063933    0.003082
     39          1           0        4.955460    2.611223   -0.740590
 ---------------------------------------------------------------------

 SCF Done:  E(RM062X) =  -1658.57121519     A.U. after    2 cycles

 The electronic state is 1-A.
 Alpha  occ. eigenvalues -- -102.63932 -25.23870 -25.23345 -25.23342 -19.61290
 Alpha  occ. eigenvalues --  -19.55446 -19.48832 -19.48080 -14.71955 -10.76303
 Alpha  occ. eigenvalues --  -10.64698 -10.57695 -10.55724 -10.54861 -10.54771
 Alpha  occ. eigenvalues --  -10.52821 -10.51477 -10.50606 -10.49540 -10.49314
 Alpha  occ. eigenvalues --  -10.49160 -10.45981 -10.45902  -9.78220  -7.50729
 Alpha  occ. eigenvalues --   -7.50061  -7.50048  -1.42897  -1.33559  -1.33123
 Alpha  occ. eigenvalues --   -1.19382  -1.09318  -1.07555  -1.00731  -0.97886
 Alpha  occ. eigenvalues --   -0.96175  -0.89784  -0.85915  -0.83959  -0.79617
 Alpha  occ. eigenvalues --   -0.79215  -0.77393  -0.74497  -0.69369  -0.67251
 Alpha  occ. eigenvalues --   -0.65534  -0.65227  -0.64888  -0.64216  -0.62011
 Alpha  occ. eigenvalues --   -0.61006  -0.58115  -0.55324  -0.53957  -0.53582
 Alpha  occ. eigenvalues --   -0.53451  -0.51427  -0.51195  -0.49549  -0.49244
 Alpha  occ. eigenvalues --   -0.48941  -0.48708  -0.47543  -0.47235  -0.46374
 Alpha  occ. eigenvalues --   -0.45934  -0.45809  -0.45057  -0.44821  -0.44221
 Alpha  occ. eigenvalues --   -0.42245  -0.41814  -0.41011  -0.39975  -0.39388
 Alpha  occ. eigenvalues --   -0.38694  -0.38248  -0.37697  -0.37354  -0.36208
 Alpha  occ. eigenvalues --   -0.36176  -0.35213  -0.34216  -0.33214  -0.33017
 Alpha  occ. eigenvalues --   -0.32580  -0.31273  -0.26553  -0.24381  -0.24048
 Alpha  occ. eigenvalues --   -0.23084  -0.22805
 Alpha virt. eigenvalues --    0.04448   0.05046   0.05443   0.05683   0.06429
 Alpha virt. eigenvalues --    0.06989   0.07054   0.07449   0.07803   0.08521
 Alpha virt. eigenvalues --    0.09078   0.09218   0.09787   0.09807   0.10154

 Mulliken charges:
               1
     1  C   -0.854342
     2  N   -0.606952
     3  C    0.034683
     4  O   -0.347758
     5  O   -0.028577
     6  C   -0.257193
     7  C   -0.147221
     8  C   -1.114228
     9  C   -0.553605
    10  C    1.643275
    11  C   -1.920448
    12  C   -0.272638
    13  C   -0.325664
    14  H    0.616203
    15  H    0.254024
    16  H    0.256186
    17  H    0.270342
    18  H    0.270007
    19  H    0.258602
    20  H    0.271674
    21  H    0.257848
    22  H    0.319560
    23  Cl   0.396717
    24  C    1.040319
    25  H    0.285023
    26  H    0.403939
    27  F   -0.140495
    28  F   -0.055481
    29  F   -0.054816
    30  O   -0.468674
    31  O   -0.499212
    32  C    0.103619
    33  C   -0.337307
    34  C   -0.952846
    35  H    0.247962
    36  H    0.255683
    37  H    0.257536
    38  H    0.238032
    39  H    0.256224
 Sum of Mulliken charges =  -1.00000

 Dipole moment (field-independent basis, Debye):
    X=              1.4978    Y=             -6.1591    Z=             -0.1151  Tot=              6.3397
 Quadrupole moment (field-independent basis, Debye-Ang):
   XX=           -183.7392   YY=           -183.1446   ZZ=           -145.9991
   XY=            -18.0132   XZ=              0.3250   YZ=             -0.4814

  Exact polarizability:     303.578      -5.436     250.876      -0.813       0.185     144.640
 Approx polarizability:     276.793      -3.669     268.133      -1.545       0.718     173.409

                      1                      2                      3
                      A                      A                      A
 Frequencies --     18.7409                26.7377                42.4486
 Red. masses --      5.7556                 7.6148                 2.3945
 Frc consts  --      0.0012                 0.0032                 0.0025
 IR Inten    --      0.6702                 0.2068                 0.0179

                      4                      5                      6
                      A                      A                      A
 Frequencies --     48.1011                50.4285                60.1252
 Red. masses --      8.2720                 3.8828                 4.8763
 Frc consts  --      0.0113                 0.0058                 0.0104
 IR Inten    --      1.9210                 0.3401                 3.8938

                      7                      8                      9
                      A                      A                      A
 Frequencies --     61.4604                67.9555                75.1658
 Red. masses --      4.5892                 2.0621                 5.0297
 Frc consts  --      0.0102                 0.0056                 0.0167
 IR Inten    --      2.4173                 0.7210                 2.6472

                     10                     11                     12
                      A                      A                      A
 Frequencies --     82.3387                94.3053               117.8629
 Red. masses --      4.7983                 5.4488                 5.2728
 Frc consts  --      0.0192                 0.0286                 0.0432
 IR Inten    --      1.2135                 8.3583                 0.6121

                     13                     14                     15
                      A                      A                      A
 Frequencies --    131.3976               142.8235               150.3579
 Red. masses --      9.7547                 7.5869                 9.2705
 Frc consts  --      0.0992                 0.0912                 0.1235
 IR Inten    --      6.0564                27.3940                 8.6236

                     16                     17                     18
                      A                      A                      A
 Frequencies --    159.2470               170.4215               193.9812
 Red. masses --     11.6485                 3.4859                 6.7282
 Frc consts  --      0.1740                 0.0597                 0.1492
 IR Inten    --      1.4448                 2.6203                 1.5572

                     19                     20                     21
                      A                      A                      A
 Frequencies --    211.8247               236.5578               248.7653
 Red. masses --      7.0198                 1.1568                 1.2897
 Frc consts  --      0.1856                 0.0381                 0.0470
 IR Inten    --      1.1469                 0.0123                 2.0995

                     22                     23                     24
                      A                      A                      A
 Frequencies --    256.1639               263.7775               320.6327
 Red. masses --      7.6768                 4.0356                12.4458
 Frc consts  --      0.2968                 0.1654                 0.7539
 IR Inten    --      0.2184                 3.1616                 1.9384

                     25                     26                     27
                      A                      A                      A
 Frequencies --    327.1677               356.4431               395.5107
 Red. masses --      3.0684                 5.2116                 7.6538
 Frc consts  --      0.1935                 0.3901                 0.7054
 IR Inten    --     16.2739                12.5378                29.5018

                     28                     29                     30
                      A                      A                      A
 Frequencies --    426.1112               429.0087               454.7565
 Red. masses --      6.8541                 6.3615                 4.0378
 Frc consts  --      0.7332                 0.6898                 0.4920
 IR Inten    --      4.7113                15.2670                 2.4462

                     31                     32                     33
                      A                      A                      A
 Frequencies --    473.5605               507.7852               516.9334
 Red. masses --      9.0809                 4.8474                 5.8419
 Frc consts  --      1.1999                 0.7364                 0.9198
 IR Inten    --     15.1873                 3.5655                31.7900

                     34                     35                     36
                      A                      A                      A
 Frequencies --    565.0660               592.7216               598.2527
 Red. masses --     13.4878                 2.1906                10.9624
 Frc consts  --      2.5374                 0.4534                 2.3117
 IR Inten    --      0.8471                 7.9973                 1.4860

                     37                     38                     39
                      A                      A                      A
 Frequencies --    645.9763               655.4654               663.4027
 Red. masses --      4.5435                 6.2623                 4.6428
 Frc consts  --      1.1171                 1.5852                 1.2039
 IR Inten    --      6.6119                25.9065                25.9728

                     40                     41                     42
                      A                      A                      A
 Frequencies --    720.1153               737.5527               763.1242
 Red. masses --      7.9126                 4.9102                 1.0975
 Frc consts  --      2.4175                 1.5738                 0.3766
 IR Inten    --     29.5468                 0.0061                 4.6899

                     43                     44                     45
                      A                      A                      A
 Frequencies --    772.0551               791.7396               800.7762
 Red. masses --      9.4739                 9.1806                 9.2276
 Frc consts  --      3.3272                 3.3907                 3.4863
 IR Inten    --     18.6442                32.8578                19.0861

                     46                     47                     48
                      A                      A                      A
 Frequencies --    824.8868               884.9616               901.8498
 Red. masses --      1.4777                 4.0972                 1.2858
 Frc consts  --      0.5924                 1.8905                 0.6161
 IR Inten    --      9.3738                50.1802                11.6719

                     49                     50                     51
                      A                      A                      A
 Frequencies --    904.9529               913.4400               927.0176
 Red. masses --      1.1513                 1.4683                 1.8795
 Frc consts  --      0.5555                 0.7218                 0.9516
 IR Inten    --      2.9784                60.2574                 8.8885

                     52                     53                     54
                      A                      A                      A
 Frequencies --    951.1429              1018.9400              1027.9241
 Red. masses --      3.9885                 1.6924                 6.2402
 Frc consts  --      2.1260                 1.0353                 3.8848
 IR Inten    --     14.4783                 6.6821                 1.4661

                     55                     56                     57
                      A                      A                      A
 Frequencies --   1031.8096              1036.6117              1062.7881
 Red. masses --      1.1120                 4.9703                 1.2194
 Frc consts  --      0.6975                 3.1468                 0.8115
 IR Inten    --     60.7201                35.2508                32.3173

                     58                     59                     60
                      A                      A                      A
 Frequencies --   1076.9665              1106.6220              1112.6017
 Red. masses --      2.4844                 1.7747                 2.3043
 Frc consts  --      1.6978                 1.2805                 1.6806
 IR Inten    --      0.9472                 1.4911                10.8497

                     61                     62                     63
                      A                      A                      A
 Frequencies --   1136.5902              1144.8203              1161.0826
 Red. masses --      2.5410                 7.2350                12.7701
 Frc consts  --      1.9340                 5.5868                10.1431
 IR Inten    --    398.6687               134.3937               333.7904

                     64                     65                     66
                      A                      A                      A
 Frequencies --   1166.5057              1174.1486              1195.2867
 Red. masses --      2.4428                 6.0537                 1.6677
 Frc consts  --      1.9584                 4.9172                 1.4038
 IR Inten    --     11.1224               193.3370                 1.1087

                     67                     68                     69
                      A                      A                      A
 Frequencies --   1228.0615              1279.6915              1288.4887
 Red. masses --      1.4879                 1.6980                 1.1927
 Frc consts  --      1.3221                 1.6383                 1.1666
 IR Inten    --    269.1104               203.6744                 0.8339

                     70                     71                     72
                      A                      A                      A
 Frequencies --   1289.3411              1298.8476              1319.6710
 Red. masses --      1.1878                 4.1514                 2.9330
 Frc consts  --      1.1634                 4.1263                 3.0095
 IR Inten    --      1.4528               446.5340               510.9005

                     73                     74                     75
                      A                      A                      A
 Frequencies --   1332.3054              1334.1359              1350.6455
 Red. masses --      1.6362                 1.0704                 1.6023
 Frc consts  --      1.7112                 1.1225                 1.7222
 IR Inten    --     73.8296                 0.6197               102.7599

                     76                     77                     78
                      A                      A                      A
 Frequencies --   1363.0301              1378.7987              1417.6128
 Red. masses --      4.0565                 3.5159                 1.4742
 Frc consts  --      4.4403                 3.9381                 1.7455
 IR Inten    --    538.2435               284.7369               104.0140

                     79                     80                     81
                      A                      A                      A
 Frequencies --   1429.4966              1444.1532              1450.1432
 Red. masses --      1.2723                 1.9897                 2.9455
 Frc consts  --      1.5318                 2.4449                 3.6494
 IR Inten    --      6.8547               195.0973               300.7582

                     82                     83                     84
                      A                      A                      A
 Frequencies --   1458.4256              1479.4456              1502.6323
 Red. masses --      2.8765                 1.1469                 1.0662
 Frc consts  --      3.6048                 1.4790                 1.4183
 IR Inten    --     77.2372                 5.9075                 1.7978

                     85                     86                     87
                      A                      A                      A
 Frequencies --   1510.4773              1518.6950              1521.8667
 Red. masses --      1.0386                 1.0386                 1.0764
 Frc consts  --      1.3961                 1.4114                 1.4688
 IR Inten    --      9.6613                10.5748                10.6596

                     88                     89                     90
                      A                      A                      A
 Frequencies --   1523.6881              1537.7868              1567.6498
 Red. masses --      1.0661                 1.0914                 3.1021
 Frc consts  --      1.4583                 1.5207                 4.4916
 IR Inten    --     33.8745                17.7284                32.9763

                     91                     92                     93
                      A                      A                      A
 Frequencies --   1610.9092              1659.7436              1683.2677
 Red. masses --      4.2964                 7.8130                 5.2296
 Frc consts  --      6.5689                12.6810                 8.7303
 IR Inten    --    267.3944               120.5118              1428.4779

                     94                     95                     96
                      A                      A                      A
 Frequencies --   1698.7325              1799.5873              2873.0877
 Red. masses --      2.0181                 8.2643                 1.1068
 Frc consts  --      3.4311                15.7689                 5.3830
 IR Inten    --     49.0783               351.3430              2373.4911

                     97                     98                     99
                      A                      A                      A
 Frequencies --   3059.2117              3064.1433              3068.3638
 Red. masses --      1.0435                 1.0375                 1.0605
 Frc consts  --      5.7539                 5.7394                 5.8829
 IR Inten    --     62.4864                27.1125                19.2923

                    100                    101                    102
                      A                      A                      A
 Frequencies --   3072.9789              3085.7354              3102.0327
 Red. masses --      1.0579                 1.0600                 1.0995
 Frc consts  --      5.8860                 5.9468                 6.2337
 IR Inten    --     22.4567                42.0561                16.1774

                    103                    104                    105
                      A                      A                      A
 Frequencies --   3107.2481              3120.9741              3125.4044
 Red. masses --      1.1048                 1.1055                 1.0988
 Frc consts  --      6.2846                 6.3444                 6.3236
 IR Inten    --      7.0515                 0.0162                51.7551

                    106                    107                    108
                      A                      A                      A
 Frequencies --   3140.9417              3141.3109              3147.1025
 Red. masses --      1.1055                 1.1016                 1.0979
 Frc consts  --      6.4257                 6.4047                 6.4064
 IR Inten    --     74.4376                38.4525               273.3801

                    109                    110                    111
                      A                      A                      A
 Frequencies --   3151.1521              3240.9752              3289.6842
 Red. masses --      1.1009                 1.0917                 1.0918
 Frc consts  --      6.4407                 6.7565                 6.9612
 IR Inten    --     38.8176                 0.8803                13.7587

 - Thermochemistry -
 -------------------
 Temperature   298.150 Kelvin.  Pressure   1.00000 Atm.
 Atom     1 has atomic number  6 and mass  12.00000

 Molecular mass:   354.07200 amu.
 Principal axes and moments of inertia in atomic units:
                           1         2         3
     Eigenvalues --  5965.07190********************
           X            0.99997  -0.00801   0.00026
           Y            0.00801   0.99997  -0.00046
           Z           -0.00025   0.00046   1.00000
 This molecule is an asymmetric top.
 Rotational symmetry number  1.
 Warning -- assumption of classical behavior for rotation
           may cause significant error
 Rotational temperatures (Kelvin)      0.01452     0.00516     0.00387
 Rotational constants (GHZ):           0.30255     0.10748     0.08063
 Zero-point vibrational energy     773109.2 (Joules/Mol)
                                  184.77754 (Kcal/Mol)
 Warning -- explicit consideration of  36 degrees of freedom as
           vibrations may cause significant error
 Vibrational temperatures:     26.96    38.47    61.07    69.21    72.56
          (Kelvin)             86.51    88.43    97.77   108.15   118.47
                              135.68   169.58   189.05   205.49   216.33
                              229.12   245.20   279.10   304.77   340.35
                              357.92   368.56   379.52   461.32   470.72
                              512.84   569.05   613.08   617.25   654.29
                              681.35   730.59   743.75   813.00   852.79
                              860.75   929.42   943.07   954.49  1036.09
                             1061.17  1097.97  1110.82  1139.14  1152.14
                             1186.83  1273.26  1297.56  1302.03  1314.24
                             1333.77  1368.48  1466.03  1478.95  1484.54
                             1491.45  1529.12  1549.51  1592.18  1600.79
                             1635.30  1647.14  1670.54  1678.34  1689.34
                             1719.75  1766.91  1841.19  1853.85  1855.07
                             1868.75  1898.71  1916.89  1919.52  1943.28
                             1961.10  1983.78  2039.63  2056.73  2077.81
                             2086.43  2098.35  2128.59  2161.95  2173.24
                             2185.06  2189.63  2192.25  2212.53  2255.50
                             2317.74  2388.00  2421.85  2444.10  2589.20
                             4133.73  4401.52  4408.62  4414.69  4421.33
                             4439.68  4463.13  4470.64  4490.39  4496.76
                             4519.11  4519.65  4527.98  4533.81  4663.04
                             4733.12

 Zero-point correction=                           0.294462 (Hartree/Particle)
 Thermal correction to Energy=                    0.318611
 Thermal correction to Enthalpy=                  0.319555
 Thermal correction to Gibbs Free Energy=         0.236507
 Sum of electronic and zero-point Energies=          -1658.276753
 Sum of electronic and thermal Energies=             -1658.252605
 Sum of electronic and thermal Enthalpies=           -1658.251660
 Sum of electronic and thermal Free Energies=        -1658.334708

                     E (Thermal)             CV                S
                      KCal/Mol        Cal/Mol-Kelvin    Cal/Mol-Kelvin
 Total                  199.931             84.469            174.788
 Electronic               0.000              0.000              0.000
 Translational            0.889              2.981             43.487
 Rotational               0.889              2.981             36.059
 Vibrational            198.154             78.508             95.242
 Vibration     1          0.593              1.986              6.763
 Vibration     2          0.593              1.984              6.058
 Vibration     3          0.595              1.980              5.141
 Vibration     4          0.595              1.978              4.894
 Vibration     5          0.595              1.977              4.801
 Vibration     6          0.597              1.973              4.453
 Vibration     7          0.597              1.973              4.410
 Vibration     8          0.598              1.969              4.212
 Vibration     9          0.599              1.966              4.013
 Vibration    10          0.600              1.961              3.834
 Vibration    11          0.603              1.953              3.569
 Vibration    12          0.608              1.934              3.135
 Vibration    13          0.612              1.922              2.925
 Vibration    14          0.616              1.910              2.766
 Vibration    15          0.618              1.902              2.668
 Vibration    16          0.621              1.892              2.559
 Vibration    17          0.626              1.879              2.431
 Vibration    18          0.635              1.848              2.189
 Vibration    19          0.643              1.823              2.028
 Vibration    20          0.655              1.785              1.829
 Vibration    21          0.662              1.765              1.739
 Vibration    22          0.666              1.752              1.688
 Vibration    23          0.670              1.739              1.637
 Vibration    24          0.706              1.634              1.307
 Vibration    25          0.711              1.621              1.274
 Vibration    26          0.732              1.562              1.138
 Vibration    27          0.762              1.480              0.979
 Vibration    28          0.788              1.413              0.871
 Vibration    29          0.790              1.407              0.862
 Vibration    30          0.813              1.350              0.782
 Vibration    31          0.830              1.309              0.728
 Vibration    32          0.863              1.233              0.639
 Vibration    33          0.872              1.212              0.617
 Vibration    34          0.921              1.107              0.514
 Vibration    35          0.950              1.047              0.462
 Vibration    36          0.956              1.036              0.453

 Optimization completed.
    -- Stationary point found.
 Normal termination of Gaussian 16 at Mon Mar 22 22:28:36 2021.
