 Gaussian 16, Revision C.01,

 ----------------------------------------------------------------------
 # M062X/6-311+G* SCF=Tight INT(grid=ultrafine) OPT=CalcFC IOP(2/17=4)
 EmpiricalDispersion=GD3 MaxDisk=10000MB
 ----------------------------------------------------------------------

 -------------------------------------
 CP19CA_carboxy.M062X_6-311pGd_opt_GD3
 -------------------------------------
 Symbolic Z-matrix:
 Charge = -1 Multiplicity = 1

 SCF Done:  E(RM062X) =  -1658.35834436     A.U. after   17 cycles
 SCF Done:  E(RM062X) =  -1658.40566485     A.U. after   14 cycles
 SCF Done:  E(RM062X) =  -1658.48281480     A.U. after   15 cycles
 SCF Done:  E(RM062X) =  -1658.49591101     A.U. after   15 cycles
 SCF Done:  E(RM062X) =  -1658.50549183     A.U. after   15 cycles
 SCF Done:  E(RM062X) =  -1658.50916919     A.U. after   14 cycles
 SCF Done:  E(RM062X) =  -1658.49980836     A.U. after   15 cycles
 SCF Done:  E(RM062X) =  -1658.50256950     A.U. after   15 cycles
 SCF Done:  E(RM062X) =  -1658.51880050     A.U. after   11 cycles
 SCF Done:  E(RM062X) =  -1658.52412003     A.U. after   15 cycles
 SCF Done:  E(RM062X) =  -1658.53018417     A.U. after   11 cycles
 SCF Done:  E(RM062X) =  -1658.53018557     A.U. after   11 cycles
 SCF Done:  E(RM062X) =  -1658.53018570     A.U. after   10 cycles
 SCF Done:  E(RM062X) =  -1658.53018579     A.U. after    9 cycles
 SCF Done:  E(RM062X) =  -1658.53018586     A.U. after    9 cycles
 SCF Done:  E(RM062X) =  -1658.53018600     A.U. after    9 cycles
 SCF Done:  E(RM062X) =  -1658.53018606     A.U. after   10 cycles
 SCF Done:  E(RM062X) =  -1658.53018610     A.U. after   10 cycles
 SCF Done:  E(RM062X) =  -1658.53018609     A.U. after    8 cycles
 Optimization completed.
    -- Stationary point found.
 Normal termination of Gaussian 16 at Tue Apr 13 12:18:18 2021.
 Gaussian 16:  ES64L-G16RevC.01  3-Jul-2019

 ----------------------------------------------------------------------
 # M062X/6-311+G* SCF=Tight INT(grid=ultrafine) EmpiricalDispersion=GD3
  Freq=Noraman MaxDisk=10000MB geom=check guess=read IOP(2/17=4)
 ----------------------------------------------------------------------

 -------------------------------------
 CP19CA_carboxy.M062X_6-311pGd_opt_GD3
 -------------------------------------
 Structure from the checkpoint file:  "CP19CA_carboxy.M062X_6-311pGd_opt_GD3.chk"
 Charge = -1 Multiplicity = 1

                         Standard orientation:
 ---------------------------------------------------------------------
 Center     Atomic      Atomic             Coordinates (Angstroms)
 Number     Number       Type             X           Y           Z
 ---------------------------------------------------------------------
      1          6           0       -0.256001   -0.123406   -0.155508
      2          7           0        1.125749   -0.235410   -0.251871
      3          6           0        1.818859   -1.393009   -0.386632
      4          8           0        1.374582   -2.522680   -0.448176
      5          8           0        3.141533   -1.122558   -0.453467
      6          6           0        4.004716   -2.248417   -0.542214
      7          6           0       -1.137514   -1.215016   -0.194322
      8          6           0       -2.500095   -0.990561   -0.089192
      9          6           0       -3.032209    0.288801    0.054043
     10          6           0       -2.138539    1.362612    0.090020
     11          6           0       -0.774140    1.174259   -0.011534
     12          1           0        1.681427    0.663957   -0.202338
     13          1           0       -0.764568   -2.221033   -0.304713
     14         17           0       -3.550197   -2.392277   -0.142239
     15          6           0       -4.504436    0.528415    0.166544
     16          1           0       -2.521334    2.369588    0.200607
     17          1           0       -0.101773    2.032284    0.020078
     18          9           0       -4.789958    1.835646    0.299921
     19          9           0       -5.190745    0.103255   -0.912008
     20          9           0       -5.058248   -0.086229    1.229740
     21          8           0        1.119160    3.712684    0.103916
     22          8           0        2.578206    2.019801   -0.108066
     23          6           0        2.264164    3.235895    0.021384
     24          6           0        3.433520    4.240170    0.081887
     25          1           0        3.277815    4.959004   -0.729172
     26          1           0        3.315907    4.812239    1.007814
     27          6           0        4.817199    3.609889   -0.002722
     28          1           0        4.968791    2.901322    0.813371
     29          1           0        4.927369    3.045655   -0.930210
     30          1           0        5.606766    4.367535    0.041778
     31          6           0        4.243292   -2.886621    0.816919
     32          1           0        4.618151   -2.119845    1.500794
     33          1           0        3.286881   -3.238110    1.210771
     34          1           0        4.935807   -1.851059   -0.951179
     35          1           0        3.590168   -2.977683   -1.242639
     36          6           0        5.232527   -4.043942    0.713991
     37          1           0        5.414072   -4.500235    1.689078
     38          1           0        4.855675   -4.825011    0.048084
     39          1           0        6.196596   -3.708481    0.320523
 ---------------------------------------------------------------------

 SCF Done:  E(RM062X) =  -1658.53018609     A.U. after    2 cycles

 The electronic state is 1-A.
 Alpha  occ. eigenvalues -- -102.58773 -25.18751 -25.18186 -25.18184 -19.56210
 Alpha  occ. eigenvalues --  -19.50246 -19.42931 -19.42021 -14.66480 -10.71142
 Alpha  occ. eigenvalues --  -10.59507 -10.52401 -10.50395 -10.50278 -10.48947
 Alpha  occ. eigenvalues --  -10.47556 -10.46147 -10.45890 -10.45406 -10.45287
 Alpha  occ. eigenvalues --  -10.43592 -10.40613 -10.40441  -9.73062  -7.45571
 Alpha  occ. eigenvalues --   -7.44905  -7.44893  -1.37721  -1.28397  -1.27956
 Alpha  occ. eigenvalues --   -1.14177  -1.04161  -1.01620  -0.95285  -0.92011
 Alpha  occ. eigenvalues --   -0.90885  -0.84508  -0.81345  -0.78939  -0.74248
 Alpha  occ. eigenvalues --   -0.73695  -0.72625  -0.69753  -0.64448  -0.62081
 Alpha  occ. eigenvalues --   -0.61129  -0.60052  -0.60028  -0.59426  -0.56368
 Alpha  occ. eigenvalues --   -0.55583  -0.53155  -0.50500  -0.48435  -0.48330
 Alpha  occ. eigenvalues --   -0.46666  -0.46201  -0.46011  -0.45568  -0.44154
 Alpha  occ. eigenvalues --   -0.44064  -0.43638  -0.42191  -0.42080  -0.41159
 Alpha  occ. eigenvalues --   -0.40758  -0.40317  -0.40208  -0.39590  -0.39075
 Alpha  occ. eigenvalues --   -0.38251  -0.36712  -0.35659  -0.35313  -0.34548
 Alpha  occ. eigenvalues --   -0.33783  -0.32840  -0.32763  -0.32167  -0.31907
 Alpha  occ. eigenvalues --   -0.31276  -0.29709  -0.29055  -0.27846  -0.27575
 Alpha  occ. eigenvalues --   -0.27185  -0.26027  -0.21200  -0.18446  -0.18193
 Alpha  occ. eigenvalues --   -0.17605  -0.16797
 Alpha virt. eigenvalues --    0.08262   0.09724   0.10125   0.10232   0.10580
 Alpha virt. eigenvalues --    0.10805   0.11392   0.11437   0.11616   0.12975
 Alpha virt. eigenvalues --    0.13450   0.13677   0.14016   0.14112   0.14320

 Mulliken charges:
               1
     1  C   -0.740197
     2  N   -0.595996
     3  C    0.048667
     4  O   -0.342899
     5  O    0.088202
     6  C   -0.514220
     7  C   -0.578250
     8  C    1.552103
     9  C   -1.806186
    10  C   -0.346039
    11  C   -0.303043
    12  H    0.609945
    13  H    0.318714
    14  Cl   0.394750
    15  C    0.998754
    16  H    0.270500
    17  H    0.420213
    18  F   -0.143753
    19  F   -0.052738
    20  F   -0.052695
    21  O   -0.439981
    22  O   -0.469060
    23  C    0.026828
    24  C   -0.237408
    25  H    0.241143
    26  H    0.241330
    27  C   -0.975680
    28  H    0.254775
    29  H    0.256421
    30  H    0.223062
    31  C   -0.191179
    32  H    0.266693
    33  H    0.281299
    34  H    0.252001
    35  H    0.260202
    36  C   -0.974308
    37  H    0.254772
    38  H    0.254948
    39  H    0.248311
 Sum of Mulliken charges =  -1.00000

 Dipole moment (field-independent basis, Debye):
    X=              0.5235    Y=             -6.1369    Z=              0.2780  Tot=              6.1655
 Quadrupole moment (field-independent basis, Debye-Ang):
   XX=           -190.0697   YY=           -185.6288   ZZ=           -146.6939
   XY=            -17.5677   XZ=              1.1324   YZ=             -1.6600

  Exact polarizability:     273.362      -5.685     226.549      -3.476       4.834     133.597
 Approx polarizability:     279.862      -4.109     268.311      -6.562       8.459     174.887

                      1                      2                      3
                      A                      A                      A
 Frequencies --     11.8658                19.9744                22.0127
 Red. masses --      5.4112                 1.9883                 3.8031
 Frc consts  --      0.0004                 0.0005                 0.0011
 IR Inten    --      1.0221                 0.2159                 0.6317

                      4                      5                      6
                      A                      A                      A
 Frequencies --     28.3943                36.1182                44.4950
 Red. masses --      6.3606                 7.6720                 6.0048
 Frc consts  --      0.0030                 0.0059                 0.0070
 IR Inten    --      1.3784                 0.4320                 1.6840

                      7                      8                      9
                      A                      A                      A
 Frequencies --     50.7122                54.1406                61.6503
 Red. masses --      6.8510                 9.2413                 2.7812
 Frc consts  --      0.0104                 0.0160                 0.0062
 IR Inten    --      1.5888                 0.0475                 0.5138

                     10                     11                     12
                      A                      A                      A
 Frequencies --     76.6146                79.2644                98.0224
 Red. masses --      4.9303                 5.7663                 4.1838
 Frc consts  --      0.0171                 0.0213                 0.0237
 IR Inten    --      4.8212                 4.5557                 5.3646

                     13                     14                     15
                      A                      A                      A
 Frequencies --    118.8800               131.4096               143.2524
 Red. masses --      4.0733                 7.2744                 7.4433
 Frc consts  --      0.0339                 0.0740                 0.0900
 IR Inten    --      8.1666                 0.5763                29.6597

                     16                     17                     18
                      A                      A                      A
 Frequencies --    161.5849               192.9454               214.0950
 Red. masses --     16.9151                 6.6126                 1.1317
 Frc consts  --      0.2602                 0.1450                 0.0306
 IR Inten    --      0.4031                 0.4360                 0.6565

                     19                     20                     21
                      A                      A                      A
 Frequencies --    221.1635               235.3005               242.6586
 Red. masses --      5.4506                 1.4358                 3.4558
 Frc consts  --      0.1571                 0.0468                 0.1199
 IR Inten    --      0.1221                 0.2645                 0.7922

                     22                     23                     24
                      A                      A                      A
 Frequencies --    251.9873               292.0171               309.9966
 Red. masses --      7.5742                 3.3452                 4.0481
 Frc consts  --      0.2834                 0.1681                 0.2292
 IR Inten    --      0.0891                 1.9259                18.8923

                     25                     26                     27
                      A                      A                      A
 Frequencies --    325.2923               349.9988               403.9303
 Red. masses --     11.6640                 4.2721                 7.8945
 Frc consts  --      0.7272                 0.3083                 0.7589
 IR Inten    --      4.3041                 8.3894                25.4789

                     28                     29                     30
                      A                      A                      A
 Frequencies --    424.5664               448.6506               454.9822
 Red. masses --      6.4475                 7.5339                 4.2095
 Frc consts  --      0.6848                 0.8935                 0.5134
 IR Inten    --      1.3616                41.7222                 1.8306

                     31                     32                     33
                      A                      A                      A
 Frequencies --    472.8553               510.3056               531.9855
 Red. masses --      8.8882                 5.5702                 5.8496
 Frc consts  --      1.1709                 0.8546                 0.9754
 IR Inten    --      7.3119                 5.9926                11.6706

                     34                     35                     36
                      A                      A                      A
 Frequencies --    565.7789               583.6759               596.9971
 Red. masses --     13.4294                 1.9485                11.1328
 Frc consts  --      2.5328                 0.3911                 2.3377
 IR Inten    --      0.6452                 1.4192                 1.6444

                     37                     38                     39
                      A                      A                      A
 Frequencies --    647.6260               654.9775               666.3942
 Red. masses --      4.5601                 4.7705                 6.8764
 Frc consts  --      1.1269                 1.2058                 1.7992
 IR Inten    --      5.9321                33.6482                15.5729

                     40                     41                     42
                      A                      A                      A
 Frequencies --    717.1480               736.0760               740.5412
 Red. masses --      7.2475                 4.9698                 2.0065
 Frc consts  --      2.1961                 1.5865                 0.6483
 IR Inten    --     48.8717                 0.0323                17.2052

                     43                     44                     45
                      A                      A                      A
 Frequencies --    771.0961               784.2185               803.6090
 Red. masses --      1.6386                10.3544                11.6613
 Frc consts  --      0.5740                 3.7519                 4.4370
 IR Inten    --      6.8035                 6.2044                18.2759

                     46                     47                     48
                      A                      A                      A
 Frequencies --    822.9586               881.2857               898.2316
 Red. masses --      1.4633                 4.1634                 1.3098
 Frc consts  --      0.5839                 1.9052                 0.6226
 IR Inten    --      6.9437                48.2860                16.5008

                     49                     50                     51
                      A                      A                      A
 Frequencies --    904.8076               908.0531               916.8890
 Red. masses --      1.3652                 1.5567                 1.4479
 Frc consts  --      0.6585                 0.7563                 0.7172
 IR Inten    --      9.2834                 4.4261                41.5573

                     52                     53                     54
                      A                      A                      A
 Frequencies --    948.0764              1006.8135              1015.8653
 Red. masses --      5.7896                 4.9487                 1.6858
 Frc consts  --      3.0661                 2.9556                 1.0250
 IR Inten    --      5.7335                16.3135                 6.2944

                     55                     56                     57
                      A                      A                      A
 Frequencies --   1037.3807              1053.0268              1064.4716
 Red. masses --      5.3080                 1.1854                 2.6560
 Frc consts  --      3.3655                 0.7745                 1.7732
 IR Inten    --     33.7249                10.9103                 5.3031

                     58                     59                     60
                      A                      A                      A
 Frequencies --   1084.5345              1105.0032              1109.2290
 Red. masses --      1.1242                 1.7619                 2.3783
 Frc consts  --      0.7791                 1.2675                 1.7241
 IR Inten    --     64.0967                 0.0079                 8.5913

                     61                     62                     63
                      A                      A                      A
 Frequencies --   1141.0010              1145.5552              1154.1024
 Red. masses --      2.5587                 2.4678                 4.7626
 Frc consts  --      1.9626                 1.9081                 3.7375
 IR Inten    --    297.9326                17.1857               133.6285

                     64                     65                     66
                      A                      A                      A
 Frequencies --   1176.2654              1180.4394              1209.2438
 Red. masses --     12.8549                 5.6186                 1.9040
 Frc consts  --     10.4793                 4.6128                 1.6404
 IR Inten    --    281.3872               155.9032                31.0335

                     67                     68                     69
                      A                      A                      A
 Frequencies --   1233.1785              1281.8436              1288.7276
 Red. masses --      1.5551                 1.8220                 1.1874
 Frc consts  --      1.3934                 1.7639                 1.1619
 IR Inten    --    232.5634               130.3944                 0.5754

                     70                     71                     72
                      A                      A                      A
 Frequencies --   1302.0371              1308.0538              1319.0451
 Red. masses --      2.9995                 1.4444                 2.4180
 Frc consts  --      2.9960                 1.4561                 2.4787
 IR Inten    --    233.2512                19.6047               286.8783

                     73                     74                     75
                      A                      A                      A
 Frequencies --   1329.3266              1350.8819              1359.7084
 Red. masses --      1.6240                 1.5073                 1.1472
 Frc consts  --      1.6909                 1.6207                 1.2496
 IR Inten    --     53.0822               121.7865               129.8232

                     76                     77                     78
                      A                      A                      A
 Frequencies --   1366.8892              1381.2503              1411.9434
 Red. masses --      3.7446                 3.6530                 1.4852
 Frc consts  --      4.1222                 4.1062                 1.7445
 IR Inten    --    412.5498               313.5941                97.1272

                     79                     80                     81
                      A                      A                      A
 Frequencies --   1424.2474              1441.3609              1445.8758
 Red. masses --      1.2689                 1.9297                 2.3860
 Frc consts  --      1.5166                 2.3621                 2.9388
 IR Inten    --      3.7998               244.6200               216.0587

                     82                     83                     84
                      A                      A                      A
 Frequencies --   1459.2686              1485.5271              1505.1721
 Red. masses --      3.1022                 1.1304                 1.0866
 Frc consts  --      3.8922                 1.4698                 1.4505
 IR Inten    --     67.6981                 2.3864                21.0905

                     85                     86                     87
                      A                      A                      A
 Frequencies --   1507.6354              1513.3381              1519.0677
 Red. masses --      1.0374                 1.0707                 1.0686
 Frc consts  --      1.3892                 1.4448                 1.4528
 IR Inten    --      5.7284                 9.2594                39.6156

                     88                     89                     90
                      A                      A                      A
 Frequencies --   1522.8134              1527.5074              1569.7344
 Red. masses --      1.0379                 1.0770                 3.0332
 Frc consts  --      1.4180                 1.4805                 4.4036
 IR Inten    --      8.0177                10.7394                26.4533

                     91                     92                     93
                      A                      A                      A
 Frequencies --   1612.1137              1662.3727              1694.4727
 Red. masses --      4.7642                 7.3179                 6.7490
 Frc consts  --      7.2951                11.9150                11.4172
 IR Inten    --    190.4078                69.4811              1165.9630

                     94                     95                     96
                      A                      A                      A
 Frequencies --   1704.4929              1798.3583              2754.0256
 Red. masses --      1.7537                 8.1285                 1.1162
 Frc consts  --      3.0019                15.4886                 4.9879
 IR Inten    --    141.8098               253.5500              2416.3999

                     97                     98                     99
                      A                      A                      A
 Frequencies --   3052.5983              3059.3287              3067.4099
 Red. masses --      1.0451                 1.0370                 1.0596
 Frc consts  --      5.7380                 5.7184                 5.8739
 IR Inten    --     69.2719                37.0407                26.6757

                    100                    101                    102
                      A                      A                      A
 Frequencies --   3079.8276              3091.0471              3097.2425
 Red. masses --      1.0612                 1.0591                 1.1014
 Frc consts  --      5.9309                 5.9621                 6.2249
 IR Inten    --      3.4001                63.0585                15.9036

                    103                    104                    105
                      A                      A                      A
 Frequencies --   3112.5857              3126.0820              3128.4560
 Red. masses --      1.1009                 1.0935                 1.1045
 Frc consts  --      6.2842                 6.2960                 6.3689
 IR Inten    --      9.4100                47.8602                 4.8650

                    106                    107                    108
                      A                      A                      A
 Frequencies --   3132.1923              3136.4778              3148.5425
 Red. masses --      1.0984                 1.1009                 1.1022
 Frc consts  --      6.3493                 6.3807                 6.4380
 IR Inten    --    320.7977                35.4363                38.3488

                    109                    110                    111
                      A                      A                      A
 Frequencies --   3149.3083              3240.3600              3288.0408
 Red. masses --      1.1078                 1.0913                 1.0916
 Frc consts  --      6.4734                 6.7513                 6.9533
 IR Inten    --     55.1020                 1.0000                11.3868

 - Thermochemistry -
 -------------------
 Temperature   298.150 Kelvin.  Pressure   1.00000 Atm.
 Atom     1 has atomic number  6 and mass  12.00000

 Molecular mass:   354.07200 amu.
 Principal axes and moments of inertia in atomic units:
                           1         2         3
     Eigenvalues --  6774.35731********************
           X            0.99993  -0.01125   0.00386
           Y            0.01127   0.99992  -0.00544
           Z           -0.00380   0.00549   0.99998
 This molecule is an asymmetric top.
 Rotational symmetry number  1.
 Warning -- assumption of classical behavior for rotation
           may cause significant error
 Rotational temperatures (Kelvin)      0.01279     0.00561     0.00401
 Rotational constants (GHZ):           0.26641     0.11696     0.08364
 Zero-point vibrational energy     771844.1 (Joules/Mol)
                                  184.47518 (Kcal/Mol)
 Warning -- explicit consideration of  36 degrees of freedom as
           vibrations may cause significant error
 Vibrational temperatures:     17.07    28.74    31.67    40.85    51.97
          (Kelvin)             64.02    72.96    77.90    88.70   110.23
                              114.04   141.03   171.04   189.07   206.11
                              232.48   277.61   308.03   318.20   338.54
                              349.13   362.55   420.15   446.02   468.02
                              503.57   581.17   610.86   645.51   654.62
                              680.33   734.22   765.41   814.03   839.78
                              858.95   931.79   942.37   958.79  1031.82
                             1059.05  1065.47  1109.44  1128.32  1156.21
                             1184.05  1267.97  1292.35  1301.82  1306.49
                             1319.20  1364.07  1448.58  1461.60  1492.56
                             1515.07  1531.54  1560.40  1589.85  1595.93
                             1641.65  1648.20  1660.50  1692.38  1698.39
                             1739.83  1774.27  1844.29  1854.19  1873.34
                             1882.00  1897.81  1912.60  1943.62  1956.32
                             1966.65  1987.31  2031.47  2049.17  2073.80
                             2080.29  2099.56  2137.34  2165.61  2169.15
                             2177.36  2185.60  2190.99  2197.74  2258.50
                             2319.47  2391.78  2437.97  2452.39  2587.44
                             3962.43  4392.01  4401.69  4413.32  4431.19
                             4447.33  4456.24  4478.32  4497.73  4501.15
                             4506.53  4512.69  4530.05  4531.15  4662.16
                             4730.76

 Zero-point correction=                           0.293980 (Hartree/Particle)
 Thermal correction to Energy=                    0.318416
 Thermal correction to Enthalpy=                  0.319360
 Thermal correction to Gibbs Free Energy=         0.232985
 Sum of electronic and zero-point Energies=          -1658.236206
 Sum of electronic and thermal Energies=             -1658.211770
 Sum of electronic and thermal Enthalpies=           -1658.210826
 Sum of electronic and thermal Free Energies=        -1658.297201

                     E (Thermal)             CV                S
                      KCal/Mol        Cal/Mol-Kelvin    Cal/Mol-Kelvin
 Total                  199.809             84.474            181.792
 Electronic               0.000              0.000              0.000
 Translational            0.889              2.981             43.487
 Rotational               0.889              2.981             36.065
 Vibrational            198.031             78.512            102.240
 Vibration     1          0.593              1.987              7.671
 Vibration     2          0.593              1.986              6.637
 Vibration     3          0.593              1.985              6.444
 Vibration     4          0.593              1.984              5.939
 Vibration     5          0.594              1.982              5.461
 Vibration     6          0.595              1.980              5.048
 Vibration     7          0.595              1.977              4.789
 Vibration     8          0.596              1.976              4.660
 Vibration     9          0.597              1.973              4.404
 Vibration    10          0.599              1.965              3.976
 Vibration    11          0.600              1.963              3.909
 Vibration    12          0.603              1.951              3.493
 Vibration    13          0.609              1.934              3.118
 Vibration    14          0.612              1.922              2.925
 Vibration    15          0.616              1.910              2.760
 Vibration    16          0.622              1.890              2.531
 Vibration    17          0.635              1.850              2.199
 Vibration    18          0.644              1.819              2.008
 Vibration    19          0.648              1.809              1.950
 Vibration    20          0.655              1.787              1.838
 Vibration    21          0.659              1.775              1.783
 Vibration    22          0.664              1.759              1.717
 Vibration    23          0.687              1.689              1.462
 Vibration    24          0.699              1.655              1.362
 Vibration    25          0.709              1.625              1.283
 Vibration    26          0.727              1.575              1.166
 Vibration    27          0.769              1.462              0.948
 Vibration    28          0.787              1.417              0.877
 Vibration    29          0.808              1.364              0.800
 Vibration    30          0.813              1.350              0.781
 Vibration    31          0.830              1.310              0.730
 Vibration    32          0.865              1.227              0.633
 Vibration    33          0.887              1.179              0.583
 Vibration    34          0.922              1.105              0.512
 Vibration    35          0.941              1.067              0.479
 Vibration    36          0.955              1.038              0.455

                           ! Non-Optimized Parameters !
 Normal termination of Gaussian 16 at Tue Apr 13 19:57:24 2021.
