 Gaussian 16, Revision C.01,
 Gaussian 16:  ES64L-G16RevC.01  3-Jul-2019

 ----------------------------------------------------------------------
 # DSDPBEP86/AUG-cc-PVTZ SCF=Tight INT(grid=ultrafine) MaxDisk=1400000M
 B
 ----------------------------------------------------------------------

 ------------------------------------
 CP19CA_carboxy.DSDPBEP86_AUG-cc-PVTZ
 ------------------------------------
 Symbolic Z-matrix:
 Charge = -1 Multiplicity = 1

                         Standard orientation:
 ---------------------------------------------------------------------
 Center     Atomic      Atomic             Coordinates (Angstroms)
 Number     Number       Type             X           Y           Z
 ---------------------------------------------------------------------
      1          6           0       -0.256001   -0.123406   -0.155508
      2          7           0        1.125749   -0.235410   -0.251871
      3          6           0        1.818859   -1.393009   -0.386632
      4          8           0        1.374582   -2.522680   -0.448176
      5          8           0        3.141533   -1.122558   -0.453467
      6          6           0        4.004716   -2.248417   -0.542214
      7          6           0       -1.137514   -1.215016   -0.194322
      8          6           0       -2.500095   -0.990561   -0.089192
      9          6           0       -3.032209    0.288801    0.054043
     10          6           0       -2.138539    1.362612    0.090020
     11          6           0       -0.774140    1.174259   -0.011534
     12          1           0        1.681427    0.663957   -0.202338
     13          1           0       -0.764568   -2.221033   -0.304713
     14         17           0       -3.550197   -2.392277   -0.142239
     15          6           0       -4.504436    0.528415    0.166544
     16          1           0       -2.521334    2.369588    0.200607
     17          1           0       -0.101773    2.032284    0.020078
     18          9           0       -4.789958    1.835646    0.299921
     19          9           0       -5.190745    0.103255   -0.912008
     20          9           0       -5.058248   -0.086229    1.229740
     21          8           0        1.119160    3.712684    0.103916
     22          8           0        2.578206    2.019801   -0.108066
     23          6           0        2.264164    3.235895    0.021384
     24          6           0        3.433520    4.240170    0.081887
     25          1           0        3.277815    4.959004   -0.729172
     26          1           0        3.315907    4.812239    1.007814
     27          6           0        4.817199    3.609889   -0.002722
     28          1           0        4.968791    2.901322    0.813371
     29          1           0        4.927369    3.045655   -0.930210
     30          1           0        5.606766    4.367535    0.041778
     31          6           0        4.243292   -2.886621    0.816919
     32          1           0        4.618151   -2.119845    1.500794
     33          1           0        3.286881   -3.238110    1.210771
     34          1           0        4.935807   -1.851059   -0.951179
     35          1           0        3.590168   -2.977683   -1.242639
     36          6           0        5.232527   -4.043942    0.713991
     37          1           0        5.414072   -4.500235    1.689078
     38          1           0        4.855675   -4.825011    0.048084
     39          1           0        6.196596   -3.708481    0.320523
 ---------------------------------------------------------------------

 SCF Done:  E(RDSDPBEP86) =  -1654.65587430     A.U. after   14 cycles
 E2(DSDPBEP86) =    -0.2218883103D+01 E(DSDPBEP86) =    -0.16568747573997D+04

 The electronic state is 1-A.
 Alpha  occ. eigenvalues -- -103.48027 -25.61823 -25.61269 -25.61267 -19.94329
 Alpha  occ. eigenvalues --  -19.87724 -19.80560 -19.79719 -14.99373 -10.99210
 Alpha  occ. eigenvalues --  -10.87702 -10.80277 -10.78125 -10.78062 -10.77149
 Alpha  occ. eigenvalues --  -10.74902 -10.73827 -10.73626 -10.73037 -10.72653
 Alpha  occ. eigenvalues --  -10.70953 -10.68547 -10.68382 -10.05537  -7.63210
 Alpha  occ. eigenvalues --   -7.62752  -7.62736  -1.47985  -1.38671  -1.38252
 Alpha  occ. eigenvalues --   -1.23378  -1.12977  -1.10716  -1.03610  -1.00818
 Alpha  occ. eigenvalues --   -0.98633  -0.91734  -0.88374  -0.85716  -0.81019
 Alpha  occ. eigenvalues --   -0.80841  -0.78375  -0.75491  -0.69659  -0.66968
 Alpha  occ. eigenvalues --   -0.66170  -0.65844  -0.64129  -0.63760  -0.61038
 Alpha  occ. eigenvalues --   -0.60055  -0.57246  -0.54375  -0.52714  -0.52606
 Alpha  occ. eigenvalues --   -0.50276  -0.50035  -0.49574  -0.49366  -0.48181
 Alpha  occ. eigenvalues --   -0.48141  -0.47432  -0.46363  -0.45775  -0.44249
 Alpha  occ. eigenvalues --   -0.44198  -0.43616  -0.43189  -0.43030  -0.42788
 Alpha  occ. eigenvalues --   -0.40798  -0.39475  -0.39014  -0.38597  -0.37316
 Alpha  occ. eigenvalues --   -0.36768  -0.35958  -0.35466  -0.35034  -0.34410
 Alpha  occ. eigenvalues --   -0.33780  -0.32775  -0.31424  -0.30389  -0.30090
 Alpha  occ. eigenvalues --   -0.29361  -0.28848  -0.21544  -0.21137  -0.20681
 Alpha  occ. eigenvalues --   -0.19604  -0.18283
 Alpha virt. eigenvalues --    0.07593   0.09017   0.09269   0.09750   0.10503
 Alpha virt. eigenvalues --    0.10794   0.11267   0.11481   0.11798   0.12102
 Alpha virt. eigenvalues --    0.12303   0.12915   0.13038   0.13682   0.14232

 Mulliken charges:
               1
     1  C    0.889491
     2  N   -0.377807
     3  C    0.491878
     4  O   -0.937236
     5  O   -0.468295
     6  C   -0.286855
     7  C   -1.076706
     8  C    1.097843
     9  C    0.021353
    10  C   -0.638665
    11  C   -1.001749
    12  H    0.581771
    13  H    0.491309
    14  Cl  -0.532462
    15  C    1.207254
    16  H    0.293471
    17  H    0.944843
    18  F   -0.372830
    19  F   -0.419573
    20  F   -0.418924
    21  O   -1.014705
    22  O   -0.679636
    23  C    0.493577
    24  C   -0.229716
    25  H    0.211726
    26  H    0.214875
    27  C   -0.927850
    28  H    0.259875
    29  H    0.262095
    30  H    0.288992
    31  C   -0.410616
    32  H    0.237427
    33  H    0.303563
    34  H    0.342005
    35  H    0.347746
    36  C   -1.002627
    37  H    0.259972
    38  H    0.281831
    39  H    0.273355
 Sum of Mulliken charges =  -1.00000

 Dipole moment (field-independent basis, Debye):
    X=              0.5525    Y=             -5.9441    Z=              0.2608  Tot=              5.9755
 Quadrupole moment (field-independent basis, Debye-Ang):
   XX=           -189.6089   YY=           -185.9767   ZZ=           -145.6436
   XY=            -17.3130   XZ=              0.9652   YZ=             -1.6570

 Normal termination of Gaussian 16 at Wed Apr 14 15:03:38 2021.
