 Gaussian 16, Revision C.01,
 Gaussian 16:  ES64L-G16RevC.01  3-Jul-2019

 ----------------------------------------------------------------------
 # DSDPBEP86/AUG-cc-PVTZ SCF=Tight INT(grid=ultrafine) Pop=NBO MaxDisk=
 1400000MB
 ----------------------------------------------------------------------

 ---------------------------------------
 CP19CA_carboxy_c2.DSDPBEP86_AUG-cc-PVTZ
 ---------------------------------------
 Symbolic Z-matrix:
 Charge = -1 Multiplicity = 1

                         Standard orientation:
 ---------------------------------------------------------------------
 Center     Atomic      Atomic             Coordinates (Angstroms)
 Number     Number       Type             X           Y           Z
 ---------------------------------------------------------------------
      1          6           0       -0.329813   -0.739586   -0.004316
      2          7           0        1.054515   -0.633986   -0.029850
      3          6           0        1.920905   -1.676923   -0.065319
      4          8           0        1.665820   -2.864560   -0.099123
      5          8           0        3.188312   -1.208747   -0.065302
      6          6           0        4.210114   -2.193833   -0.085917
      7          6           0        5.537324   -1.461916   -0.082399
      8          6           0        6.709842   -2.438239   -0.095025
      9          6           0       -1.049712    0.463873   -0.126773
     10          6           0       -2.428117    0.441020   -0.084762
     11          6           0       -3.142510   -0.753406    0.070684
     12          6           0       -2.415712   -1.934400    0.179454
     13          6           0       -1.029525   -1.945605    0.144911
     14          1           0        1.475709    0.342084    0.045978
     15          1           0        4.100721   -2.821243   -0.976258
     16          1           0        4.110794   -2.846105    0.787756
     17          1           0        5.579495   -0.817088    0.799141
     18          1           0        5.575909   -0.801642   -0.952724
     19          1           0        6.691359   -3.091364    0.781929
     20          1           0        7.665540   -1.910469   -0.094398
     21          1           0        6.684477   -3.077220   -0.982203
     22          1           0       -0.517350    1.403885   -0.283970
     23         17           0       -3.273599    1.960822   -0.243624
     24          6           0       -4.636996   -0.787332    0.118059
     25          1           0       -2.947022   -2.870678    0.297999
     26          1           0       -0.490856   -2.876083    0.230056
     27          9           0       -5.102986   -2.042770    0.279821
     28          9           0       -5.149799   -0.068539    1.133607
     29          9           0       -5.212998   -0.320736   -1.005001
     30          8           0        0.681958    3.025298   -0.782534
     31          8           0        2.160928    1.761296    0.330442
     32          6           0        1.742808    2.847885   -0.161175
     33          6           0        2.644274    4.081584    0.040422
     34          6           0        3.965222    3.793956    0.741673
     35          1           0        2.055835    4.817852    0.597785
     36          1           0        2.807838    4.523057   -0.947633
     37          1           0        3.790898    3.362836    1.728696
     38          1           0        4.564388    4.703266    0.857832
     39          1           0        4.549114    3.062485    0.179766
 ---------------------------------------------------------------------

 SCF Done:  E(RDSDPBEP86) =  -1654.65407959     A.U. after   14 cycles
 E2(DSDPBEP86) =    -0.2218872752D+01 E(DSDPBEP86) =    -0.16568729523451D+04

 The electronic state is 1-A.
 Alpha  occ. eigenvalues -- -103.46727 -25.61788 -25.61118 -25.61108 -19.94093
 Alpha  occ. eigenvalues --  -19.87436 -19.80546 -19.79622 -14.98891 -10.99086
 Alpha  occ. eigenvalues --  -10.87326 -10.79582 -10.78000 -10.77890 -10.77030
 Alpha  occ. eigenvalues --  -10.74723 -10.74285 -10.73717 -10.73241 -10.71897
 Alpha  occ. eigenvalues --  -10.71497 -10.68524 -10.68327 -10.04237  -7.61917
 Alpha  occ. eigenvalues --   -7.61451  -7.61426  -1.47857  -1.38539  -1.38133
 Alpha  occ. eigenvalues --   -1.23162  -1.12675  -1.10741  -1.03264  -1.00739
 Alpha  occ. eigenvalues --   -0.97991  -0.91303  -0.88561  -0.85491  -0.80938
 Alpha  occ. eigenvalues --   -0.80731  -0.78037  -0.75425  -0.69121  -0.67102
 Alpha  occ. eigenvalues --   -0.65855  -0.65179  -0.63993  -0.63567  -0.61925
 Alpha  occ. eigenvalues --   -0.59334  -0.56868  -0.53594  -0.52794  -0.52628
 Alpha  occ. eigenvalues --   -0.52439  -0.49850  -0.49432  -0.48471  -0.48019
 Alpha  occ. eigenvalues --   -0.47238  -0.46942  -0.46495  -0.46236  -0.44983
 Alpha  occ. eigenvalues --   -0.43778  -0.43466  -0.43007  -0.42820  -0.41831
 Alpha  occ. eigenvalues --   -0.39952  -0.39257  -0.38808  -0.38504  -0.38074
 Alpha  occ. eigenvalues --   -0.35833  -0.35592  -0.35372  -0.34968  -0.34573
 Alpha  occ. eigenvalues --   -0.33172  -0.32744  -0.30346  -0.30218  -0.30086
 Alpha  occ. eigenvalues --   -0.29211  -0.28541  -0.21132  -0.20970  -0.20575
 Alpha  occ. eigenvalues --   -0.19572  -0.18195
 Alpha virt. eigenvalues --    0.07419   0.09022   0.09398   0.09478   0.09776
 Alpha virt. eigenvalues --    0.10816   0.11385   0.11671   0.11817   0.12271
 Alpha virt. eigenvalues --    0.12476   0.12970   0.13221   0.13888   0.13913

 Mulliken charges:
               1
     1  C    0.877826
     2  N   -0.158286
     3  C    0.277780
     4  O   -0.931987
     5  O   -0.243340
     6  C   -0.344803
     7  C   -0.493076
     8  C   -0.981358
     9  C   -1.520430
    10  C    1.028425
    11  C   -0.061483
    12  C   -0.580082
    13  C   -0.670960
    14  H    0.695240
    15  H    0.330404
    16  H    0.322392
    17  H    0.229675
    18  H    0.220229
    19  H    0.277079
    20  H    0.279368
    21  H    0.276215
    22  H    0.897252
    23  Cl  -0.499902
    24  C    1.224869
    25  H    0.367745
    26  H    0.456877
    27  F   -0.384412
    28  F   -0.414381
    29  F   -0.408237
    30  O   -0.960778
    31  O   -0.763166
    32  C    0.483522
    33  C   -0.169566
    34  C   -0.961052
    35  H    0.211947
    36  H    0.231246
    37  H    0.262124
    38  H    0.265905
    39  H    0.331180
 Sum of Mulliken charges =  -1.00000

 Dipole moment (field-independent basis, Debye):
    X=              1.6417    Y=             -5.2482    Z=              0.9704  Tot=              5.5839
 Quadrupole moment (field-independent basis, Debye-Ang):
   XX=           -184.8265   YY=           -177.4030   ZZ=           -147.7579
   XY=             -6.7712   XZ=             -2.0581   YZ=              3.0986

 Summary of Natural Population Analysis:

                                       Natural Population
                Natural  -----------------------------------------------
    Atom  No    Charge         Core      Valence    Rydberg      Total
 -----------------------------------------------------------------------
      C    1    0.23964      1.99909     3.73312    0.02815     5.76036
      N    2   -0.69475      1.99931     5.66654    0.02890     7.69475
      C    3    1.01349      1.99946     2.95363    0.03342     4.98651
      O    4   -0.73707      1.99975     6.70559    0.03172     8.73707
      O    5   -0.56708      1.99973     6.54239    0.02496     8.56708
      C    6    0.01091      1.99932     3.96398    0.02580     5.98909
      C    7   -0.37610      1.99950     4.35522    0.02138     6.37610
      C    8   -0.54853      1.99953     4.53403    0.01497     6.54853
      C    9   -0.30814      1.99908     4.26904    0.04002     6.30814
      C   10    0.11893      1.99829     3.84524    0.03753     5.88107
      C   11   -0.30414      1.99892     4.26140    0.04382     6.30414
      C   12   -0.12137      1.99886     4.09300    0.02951     6.12137
      C   13   -0.27812      1.99920     4.25515    0.02377     6.27812
      H   14    0.48699      0.00000     0.50613    0.00687     0.51301
      H   15    0.15998      0.00000     0.83696    0.00306     0.84002
      H   16    0.15911      0.00000     0.83785    0.00304     0.84089
      H   17    0.18926      0.00000     0.80683    0.00391     0.81074
      H   18    0.18659      0.00000     0.80944    0.00396     0.81341
      H   19    0.17998      0.00000     0.81758    0.00244     0.82002
      H   20    0.18690      0.00000     0.81084    0.00225     0.81310
      H   21    0.17986      0.00000     0.81770    0.00244     0.82014
      H   22    0.29195      0.00000     0.70036    0.00769     0.70805
     Cl   23   -0.02075      9.99967     6.99753    0.02355    17.02075
      C   24    1.12325      1.99919     2.82614    0.05142     4.87675
      H   25    0.20522      0.00000     0.79120    0.00358     0.79478
      H   26    0.24337      0.00000     0.75385    0.00278     0.75663
      F   27   -0.37876      1.99993     7.37134    0.00749     9.37876
      F   28   -0.37155      1.99992     7.36334    0.00828     9.37155
      F   29   -0.37140      1.99992     7.36319    0.00828     9.37140
      O   30   -0.81673      1.99977     6.79049    0.02647     8.81673
      O   31   -0.85489      1.99974     6.83143    0.02372     8.85489
      C   32    0.88215      1.99963     3.07158    0.04665     5.11785
      C   33   -0.46773      1.99941     4.44561    0.02270     6.46773
      C   34   -0.54649      1.99955     4.53077    0.01618     6.54649
      H   35    0.18498      0.00000     0.81174    0.00329     0.81502
      H   36    0.18442      0.00000     0.81230    0.00329     0.81558
      H   37    0.19037      0.00000     0.80653    0.00310     0.80963
      H   38    0.15940      0.00000     0.83748    0.00313     0.84060
      H   39    0.18719      0.00000     0.80963    0.00317     0.81281
 =======================================================================
   * Total *   -0.99966     53.98678   129.33620    0.67668   183.99966

 Normal termination of Gaussian 16 at Wed Apr 28 17:10:58 2021.
