 Gaussian 16, Revision C.01,
 Gaussian 16:  ES64L-G16RevC.01  3-Jul-2019

 ----------------------------------------------------------------------
 # DSDPBEP86/AUG-cc-PVTZ SCF=Tight INT(grid=ultrafine) Pop=NBO MaxDisk=
 1400000MB
 ----------------------------------------------------------------------

 ------------------------------------
 CP19CA_carboxy.DSDPBEP86_AUG-cc-PVTZ
 ------------------------------------
 Symbolic Z-matrix:
 Charge = -1 Multiplicity = 1

                         Standard orientation:
 ---------------------------------------------------------------------
 Center     Atomic      Atomic             Coordinates (Angstroms)
 Number     Number       Type             X           Y           Z
 ---------------------------------------------------------------------
      1          6           0       -0.256001   -0.123406   -0.155508
      2          7           0        1.125749   -0.235410   -0.251871
      3          6           0        1.818859   -1.393009   -0.386632
      4          8           0        1.374582   -2.522680   -0.448176
      5          8           0        3.141533   -1.122558   -0.453467
      6          6           0        4.004716   -2.248417   -0.542214
      7          6           0       -1.137514   -1.215016   -0.194322
      8          6           0       -2.500095   -0.990561   -0.089192
      9          6           0       -3.032209    0.288801    0.054043
     10          6           0       -2.138539    1.362612    0.090020
     11          6           0       -0.774140    1.174259   -0.011534
     12          1           0        1.681427    0.663957   -0.202338
     13          1           0       -0.764568   -2.221033   -0.304713
     14         17           0       -3.550197   -2.392277   -0.142239
     15          6           0       -4.504436    0.528415    0.166544
     16          1           0       -2.521334    2.369588    0.200607
     17          1           0       -0.101773    2.032284    0.020078
     18          9           0       -4.789958    1.835646    0.299921
     19          9           0       -5.190745    0.103255   -0.912008
     20          9           0       -5.058248   -0.086229    1.229740
     21          8           0        1.119160    3.712684    0.103916
     22          8           0        2.578206    2.019801   -0.108066
     23          6           0        2.264164    3.235895    0.021384
     24          6           0        3.433520    4.240170    0.081887
     25          1           0        3.277815    4.959004   -0.729172
     26          1           0        3.315907    4.812239    1.007814
     27          6           0        4.817199    3.609889   -0.002722
     28          1           0        4.968791    2.901322    0.813371
     29          1           0        4.927369    3.045655   -0.930210
     30          1           0        5.606766    4.367535    0.041778
     31          6           0        4.243292   -2.886621    0.816919
     32          1           0        4.618151   -2.119845    1.500794
     33          1           0        3.286881   -3.238110    1.210771
     34          1           0        4.935807   -1.851059   -0.951179
     35          1           0        3.590168   -2.977683   -1.242639
     36          6           0        5.232527   -4.043942    0.713991
     37          1           0        5.414072   -4.500235    1.689078
     38          1           0        4.855675   -4.825011    0.048084
     39          1           0        6.196596   -3.708481    0.320523
 ---------------------------------------------------------------------

 SCF Done:  E(RDSDPBEP86) =  -1654.65587430     A.U. after   14 cycles
 E2(DSDPBEP86) =    -0.2218883103D+01 E(DSDPBEP86) =    -0.16568747573998D+04

 The electronic state is 1-A.
 Alpha  occ. eigenvalues -- -103.48027 -25.61823 -25.61269 -25.61267 -19.94329
 Alpha  occ. eigenvalues --  -19.87724 -19.80560 -19.79719 -14.99373 -10.99210
 Alpha  occ. eigenvalues --  -10.87702 -10.80277 -10.78125 -10.78062 -10.77149
 Alpha  occ. eigenvalues --  -10.74902 -10.73827 -10.73626 -10.73037 -10.72653
 Alpha  occ. eigenvalues --  -10.70953 -10.68547 -10.68382 -10.05537  -7.63210
 Alpha  occ. eigenvalues --   -7.62752  -7.62736  -1.47985  -1.38671  -1.38252
 Alpha  occ. eigenvalues --   -1.23378  -1.12977  -1.10716  -1.03610  -1.00818
 Alpha  occ. eigenvalues --   -0.98633  -0.91734  -0.88374  -0.85716  -0.81019
 Alpha  occ. eigenvalues --   -0.80841  -0.78375  -0.75491  -0.69659  -0.66968
 Alpha  occ. eigenvalues --   -0.66170  -0.65844  -0.64129  -0.63760  -0.61038
 Alpha  occ. eigenvalues --   -0.60055  -0.57246  -0.54375  -0.52714  -0.52606
 Alpha  occ. eigenvalues --   -0.50276  -0.50035  -0.49574  -0.49366  -0.48181
 Alpha  occ. eigenvalues --   -0.48141  -0.47432  -0.46363  -0.45775  -0.44249
 Alpha  occ. eigenvalues --   -0.44198  -0.43616  -0.43189  -0.43030  -0.42788
 Alpha  occ. eigenvalues --   -0.40798  -0.39475  -0.39014  -0.38597  -0.37316
 Alpha  occ. eigenvalues --   -0.36768  -0.35958  -0.35466  -0.35034  -0.34410
 Alpha  occ. eigenvalues --   -0.33780  -0.32775  -0.31424  -0.30389  -0.30090
 Alpha  occ. eigenvalues --   -0.29361  -0.28848  -0.21544  -0.21137  -0.20681
 Alpha  occ. eigenvalues --   -0.19604  -0.18283
 Alpha virt. eigenvalues --    0.07593   0.09017   0.09269   0.09750   0.10503
 Alpha virt. eigenvalues --    0.10794   0.11267   0.11481   0.11798   0.12102
 Alpha virt. eigenvalues --    0.12303   0.12915   0.13038   0.13682   0.14232

 Mulliken charges:
               1
     1  C    0.889491
     2  N   -0.377807
     3  C    0.491878
     4  O   -0.937236
     5  O   -0.468295
     6  C   -0.286855
     7  C   -1.076706
     8  C    1.097843
     9  C    0.021353
    10  C   -0.638665
    11  C   -1.001749
    12  H    0.581771
    13  H    0.491309
    14  Cl  -0.532462
    15  C    1.207254
    16  H    0.293471
    17  H    0.944843
    18  F   -0.372830
    19  F   -0.419573
    20  F   -0.418924
    21  O   -1.014705
    22  O   -0.679636
    23  C    0.493577
    24  C   -0.229716
    25  H    0.211726
    26  H    0.214875
    27  C   -0.927850
    28  H    0.259875
    29  H    0.262095
    30  H    0.288992
    31  C   -0.410616
    32  H    0.237427
    33  H    0.303563
    34  H    0.342005
    35  H    0.347746
    36  C   -1.002627
    37  H    0.259972
    38  H    0.281831
    39  H    0.273355
 Sum of Mulliken charges =  -1.00000

 Dipole moment (field-independent basis, Debye):
    X=              0.5525    Y=             -5.9441    Z=              0.2608  Tot=              5.9755
 Quadrupole moment (field-independent basis, Debye-Ang):
   XX=           -189.6089   YY=           -185.9767   ZZ=           -145.6436
   XY=            -17.3130   XZ=              0.9652   YZ=             -1.6570

 Summary of Natural Population Analysis:

                                       Natural Population
                Natural  -----------------------------------------------
    Atom  No    Charge         Core      Valence    Rydberg      Total
 -----------------------------------------------------------------------
      C    1    0.23607      1.99909     3.73659    0.02825     5.76393
      N    2   -0.69191      1.99931     5.66352    0.02908     7.69191
      C    3    1.01151      1.99946     2.95492    0.03411     4.98849
      O    4   -0.74023      1.99975     6.70853    0.03195     8.74023
      O    5   -0.56317      1.99974     6.53805    0.02538     8.56317
      C    6    0.00762      1.99930     3.96796    0.02511     5.99238
      C    7   -0.28738      1.99902     4.26527    0.02308     6.28738
      C    8   -0.01445      1.99870     3.96142    0.05434     6.01445
      C    9   -0.15422      1.99880     4.11300    0.04241     6.15422
      C   10   -0.17142      1.99928     4.13403    0.03811     6.17142
      C   11   -0.25213      1.99917     4.22947    0.02349     6.25213
      H   12    0.48915      0.00000     0.50455    0.00630     0.51085
      H   13    0.25702      0.00000     0.73899    0.00398     0.74298
     Cl   14   -0.03083      9.99966     7.01280    0.01838    17.03083
      C   15    1.10836      1.99923     2.83700    0.05541     4.89164
      H   16    0.21735      0.00000     0.77977    0.00288     0.78265
      H   17    0.28399      0.00000     0.71000    0.00601     0.71601
      F   18   -0.37261      1.99992     7.36470    0.00799     9.37261
      F   19   -0.37405      1.99992     7.36524    0.00889     9.37405
      F   20   -0.37398      1.99992     7.36517    0.00889     9.37398
      O   21   -0.82114      1.99978     6.79526    0.02611     8.82114
      O   22   -0.86196      1.99973     6.83919    0.02303     8.86196
      C   23    0.88532      1.99963     3.06869    0.04636     5.11468
      C   24   -0.46811      1.99941     4.44591    0.02279     6.46811
      H   25    0.18383      0.00000     0.81286    0.00331     0.81617
      H   26    0.18377      0.00000     0.81292    0.00331     0.81623
      C   27   -0.54675      1.99955     4.53100    0.01621     6.54675
      H   28    0.18827      0.00000     0.80849    0.00323     0.81173
      H   29    0.18960      0.00000     0.80712    0.00327     0.81040
      H   30    0.15910      0.00000     0.83775    0.00315     0.84090
      C   31   -0.38910      1.99950     4.36926    0.02034     6.38910
      H   32    0.18216      0.00000     0.81417    0.00367     0.81784
      H   33    0.19936      0.00000     0.79735    0.00329     0.80064
      H   34    0.16084      0.00000     0.83616    0.00300     0.83916
      H   35    0.17207      0.00000     0.82485    0.00308     0.82793
      C   36   -0.54898      1.99954     4.53441    0.01504     6.54898
      H   37    0.18721      0.00000     0.81054    0.00225     0.81279
      H   38    0.18273      0.00000     0.81481    0.00246     0.81727
      H   39    0.17742      0.00000     0.82003    0.00254     0.82258
 =======================================================================
   * Total *   -0.99966     53.98741   129.33175    0.68050   183.99966

 Normal termination of Gaussian 16 at Wed Apr 28 19:30:43 2021.
