 Gaussian 16, Revision C.01,

 ----------------------------------------------------------------------
 # M062X/6-311+G* SCF=Tight INT(grid=ultrafine) OPT=CalcFC IOP(2/17=4)
 EmpiricalDispersion=GD3 SCRF=(SMD,Solvent=h2o) MaxDisk=10000MB
 ----------------------------------------------------------------------

 -------------------------------------------
 CP19CA_carboxy.M062X_6-311pGd_opt_water_GD3
 -------------------------------------------
 Symbolic Z-matrix:
 Charge = -1 Multiplicity = 1

 SCF Done:  E(RM062X) =  -1658.55771318     A.U. after   15 cycles
 SCF Done:  E(RM062X) =  -1658.57754644     A.U. after   14 cycles
 SCF Done:  E(RM062X) =  -1658.60114670     A.U. after   15 cycles
 SCF Done:  E(RM062X) =  -1658.60609544     A.U. after   15 cycles
 SCF Done:  E(RM062X) =  -1658.60352286     A.U. after   15 cycles
 SCF Done:  E(RM062X) =  -1658.60645600     A.U. after   14 cycles
 SCF Done:  E(RM062X) =  -1658.60697752     A.U. after   16 cycles
 SCF Done:  E(RM062X) =  -1658.59896956     A.U. after   15 cycles
 SCF Done:  E(RM062X) =  -1658.60706470     A.U. after   15 cycles
 SCF Done:  E(RM062X) =  -1658.57015238     A.U. after   16 cycles
 SCF Done:  E(RM062X) =  -1658.60936982     A.U. after   11 cycles
 SCF Done:  E(RM062X) =  -1658.60937135     A.U. after   11 cycles
 SCF Done:  E(RM062X) =  -1658.60937262     A.U. after   10 cycles
 SCF Done:  E(RM062X) =  -1658.60937346     A.U. after   11 cycles
 SCF Done:  E(RM062X) =  -1658.60937412     A.U. after   10 cycles
 SCF Done:  E(RM062X) =  -1658.60937403     A.U. after    9 cycles
 SCF Done:  E(RM062X) =  -1658.60937416     A.U. after   10 cycles
 SCF Done:  E(RM062X) =  -1658.60937416     A.U. after    8 cycles
 SCF Done:  E(RM062X) =  -1658.60937417     A.U. after    8 cycles
 Optimization completed.
    -- Stationary point found.
 Normal termination of Gaussian 16 at Mon Mar 22 14:30:53 2021.
 Gaussian 16:  ES64L-G16RevC.01  3-Jul-2019

 ----------------------------------------------------------------------
 # M062X/6-311+G* SCF=Tight INT(grid=ultrafine) EmpiricalDispersion=GD3
  SCRF=(SMD,Solvent=h2o) Freq=Noraman MaxDisk=10000MB geom=check guess=
 read IOP(2/17=4)
 ----------------------------------------------------------------------

 -------------------------------------------
 CP19CA_carboxy.M062X_6-311pGd_opt_water_GD3
 -------------------------------------------
 Structure from the checkpoint file:  "CP19CA_carboxy.M062X_6-311pGd_opt_water_GD3.chk"
 Charge = -1 Multiplicity = 1

                         Standard orientation:
 ---------------------------------------------------------------------
 Center     Atomic      Atomic             Coordinates (Angstroms)
 Number     Number       Type             X           Y           Z
 ---------------------------------------------------------------------
      1          6           0       -0.502545   -0.144641   -0.294273
      2          7           0        0.876621   -0.311678   -0.381332
      3          6           0        1.585459   -1.448359   -0.145146
      4          8           0        1.133222   -2.550750    0.102771
      5          8           0        2.896878   -1.184145   -0.228576
      6          6           0        3.790106   -2.294832   -0.013945
      7          6           0        5.202700   -1.769266   -0.136331
      8          6           0        6.212050   -2.890919    0.081303
      9          6           0       -1.400482   -1.180422   -0.012706
     10          6           0       -2.755445   -0.898909    0.056273
     11          6           0       -3.255748    0.385314   -0.148326
     12          6           0       -2.349471    1.406221   -0.433133
     13          6           0       -0.994039    1.150766   -0.506758
     14          1           0        1.437063    0.541689   -0.540066
     15          1           0        3.581601   -3.062757   -0.762102
     16          1           0        3.602457   -2.709220    0.978890
     17          1           0        5.352701   -0.974739    0.600115
     18          1           0        5.335210   -1.325795   -1.127029
     19          1           0        6.100212   -3.334194    1.074039
     20          1           0        7.233829   -2.517709   -0.004842
     21          1           0        6.082876   -3.685949   -0.657485
     22          1           0       -1.056554   -2.189230    0.152328
     23         17           0       -3.830358   -2.228226    0.412186
     24          6           0       -4.721321    0.682524   -0.066965
     25          1           0       -2.709340    2.413968   -0.597587
     26          1           0       -0.301612    1.954539   -0.728002
     27          9           0       -4.983757    1.976894   -0.292718
     28          9           0       -5.442933   -0.014750   -0.964641
     29          9           0       -5.241464    0.393254    1.140535
     30          8           0        1.820482    2.380537    1.315318
     31          8           0        2.548015    1.934991   -0.743380
     32          6           0        2.680130    2.458776    0.398564
     33          6           0        3.957793    3.233749    0.708849
     34          6           0        4.956179    3.322785   -0.434492
     35          1           0        4.411374    2.757120    1.583584
     36          1           0        3.654545    4.231629    1.039706
     37          1           0        5.289623    2.331456   -0.748546
     38          1           0        5.837696    3.892058   -0.131471
     39          1           0        4.520468    3.818358   -1.304506
 ---------------------------------------------------------------------

 SCF Done:  E(RM062X) =  -1658.60937417     A.U. after    2 cycles

 The electronic state is 1-A.
 Alpha  occ. eigenvalues -- -102.68867 -25.28593 -25.28160 -25.28151 -19.67138
 Alpha  occ. eigenvalues --  -19.61680 -19.57741 -19.57177 -14.78555 -10.81157
 Alpha  occ. eigenvalues --  -10.71076 -10.63586 -10.62960 -10.61563 -10.58761
 Alpha  occ. eigenvalues --  -10.58106 -10.56879 -10.56111 -10.55562 -10.52906
 Alpha  occ. eigenvalues --  -10.52355 -10.51786 -10.51306  -9.83155  -7.55667
 Alpha  occ. eigenvalues --   -7.54993  -7.54975  -1.47733  -1.38383  -1.37966
 Alpha  occ. eigenvalues --   -1.25143  -1.16379  -1.15235  -1.07055  -1.06335
 Alpha  occ. eigenvalues --   -1.01554  -0.95190  -0.90538  -0.88471  -0.85622
 Alpha  occ. eigenvalues --   -0.85131  -0.82265  -0.78865  -0.74386  -0.72575
 Alpha  occ. eigenvalues --   -0.71945  -0.70074  -0.69940  -0.68314  -0.66853
 Alpha  occ. eigenvalues --   -0.66666  -0.63693  -0.61183  -0.58885  -0.58801
 Alpha  occ. eigenvalues --   -0.58349  -0.58326  -0.57028  -0.54874  -0.54457
 Alpha  occ. eigenvalues --   -0.54079  -0.53433  -0.53227  -0.52823  -0.52635
 Alpha  occ. eigenvalues --   -0.52025  -0.51618  -0.50795  -0.50586  -0.50012
 Alpha  occ. eigenvalues --   -0.49118  -0.46624  -0.46225  -0.46033  -0.44867
 Alpha  occ. eigenvalues --   -0.44358  -0.43431  -0.42953  -0.42545  -0.41458
 Alpha  occ. eigenvalues --   -0.39966  -0.39925  -0.39402  -0.39140  -0.38737
 Alpha  occ. eigenvalues --   -0.37819  -0.37592  -0.33643  -0.32863  -0.32300
 Alpha  occ. eigenvalues --   -0.31724  -0.29123
 Alpha virt. eigenvalues --   -0.00990   0.00024   0.01252   0.02041   0.02617
 Alpha virt. eigenvalues --    0.03089   0.03319   0.03432   0.04472   0.04708
 Alpha virt. eigenvalues --    0.04932   0.04986   0.05510   0.05983   0.06184

 Mulliken charges:
               1
     1  C   -0.963307
     2  N   -0.434883
     3  C    0.210514
     4  O   -0.428614
     5  O   -0.111064
     6  C   -0.395468
     7  C   -0.117935
     8  C   -1.138884
     9  C   -0.504723
    10  C    1.287334
    11  C   -1.420619
    12  C   -0.362065
    13  C    0.015872
    14  H    0.500811
    15  H    0.282646
    16  H    0.289603
    17  H    0.272353
    18  H    0.276946
    19  H    0.272888
    20  H    0.284348
    21  H    0.273416
    22  H    0.335571
    23  Cl   0.409771
    24  C    0.797955
    25  H    0.317043
    26  H    0.311770
    27  F   -0.139404
    28  F   -0.065295
    29  F   -0.064406
    30  O   -0.579199
    31  O   -0.531294
    32  C    0.203122
    33  C   -0.549503
    34  C   -0.926884
    35  H    0.292618
    36  H    0.289262
    37  H    0.269804
    38  H    0.272536
    39  H    0.267364
 Sum of Mulliken charges =  -1.00000

 Dipole moment (field-independent basis, Debye):
    X=              0.3389    Y=             -4.5620    Z=             -2.0702  Tot=              5.0212
 Quadrupole moment (field-independent basis, Debye-Ang):
   XX=           -170.3455   YY=           -160.8103   ZZ=           -154.3142
   XY=            -19.9812   XZ=              3.0924   YZ=             -4.5759

  Exact polarizability:     334.369      -2.681     289.396     -12.582     -12.371     213.703
 Approx polarizability:     268.724       2.724     250.947     -10.839     -11.275     189.828

                      1                      2                      3
                      A                      A                      A
 Frequencies --      9.5241                22.0386                23.6070
 Red. masses --      6.9672                 4.4463                 5.8475
 Frc consts  --      0.0004                 0.0013                 0.0019
 IR Inten    --      0.6956                 0.5842                 1.6314

                      4                      5                      6
                      A                      A                      A
 Frequencies --     35.0253                40.5636                55.4798
 Red. masses --      4.3654                 4.5846                 4.7236
 Frc consts  --      0.0032                 0.0044                 0.0086
 IR Inten    --      1.8221                 8.8949                 3.0726

                      7                      8                      9
                      A                      A                      A
 Frequencies --     56.9467                60.2890                66.7170
 Red. masses --      3.3328                 3.6880                 4.1273
 Frc consts  --      0.0064                 0.0079                 0.0108
 IR Inten    --      8.7509                 5.0521                 3.9038

                     10                     11                     12
                      A                      A                      A
 Frequencies --     72.8591                77.8566                94.2370
 Red. masses --      6.6112                 5.6873                 2.8800
 Frc consts  --      0.0207                 0.0203                 0.0151
 IR Inten    --      7.1256                 9.5675                10.7889

                     13                     14                     15
                      A                      A                      A
 Frequencies --    114.3642               126.1637               146.5447
 Red. masses --      5.7300                 8.0757                 6.2666
 Frc consts  --      0.0442                 0.0757                 0.0793
 IR Inten    --      0.4130                22.4562                 2.7051

                     16                     17                     18
                      A                      A                      A
 Frequencies --    165.1367               167.5633               186.7067
 Red. masses --     15.6554                 3.2006                 6.5088
 Frc consts  --      0.2515                 0.0529                 0.1337
 IR Inten    --      1.1652                 6.3966                 3.3236

                     19                     20                     21
                      A                      A                      A
 Frequencies --    210.2170               243.5478               248.9771
 Red. masses --      7.2344                 1.1881                 1.1154
 Frc consts  --      0.1884                 0.0415                 0.0407
 IR Inten    --      1.2479                 0.1619                 2.5283

                     22                     23                     24
                      A                      A                      A
 Frequencies --    251.1820               260.9910               305.5822
 Red. masses --      5.5947                 5.7606                 4.0658
 Frc consts  --      0.2080                 0.2312                 0.2237
 IR Inten    --      0.7997                 1.0649                17.8106

                     25                     26                     27
                      A                      A                      A
 Frequencies --    318.6540               352.4297               388.3272
 Red. masses --     12.3945                 5.0462                 7.6617
 Frc consts  --      0.7415                 0.3693                 0.6807
 IR Inten    --      3.4791                16.3581                35.5344

                     28                     29                     30
                      A                      A                      A
 Frequencies --    419.8915               425.0884               451.3552
 Red. masses --      5.5529                 6.3213                 4.2571
 Frc consts  --      0.5768                 0.6730                 0.5110
 IR Inten    --      3.3048                12.2310                 5.3810

                     31                     32                     33
                      A                      A                      A
 Frequencies --    471.8341               510.6741               513.2014
 Red. masses --      9.0762                 5.4467                 5.8924
 Frc consts  --      1.1905                 0.8369                 0.9144
 IR Inten    --     16.9753                13.6844                27.4471

                     34                     35                     36
                      A                      A                      A
 Frequencies --    564.1464               585.2375               597.7898
 Red. masses --     13.0703                 1.9023                11.0277
 Frc consts  --      2.4509                 0.3839                 2.3218
 IR Inten    --      2.1163                 8.0413                 1.0738

                     37                     38                     39
                      A                      A                      A
 Frequencies --    630.8778               652.7770               654.1260
 Red. masses --      3.4087                 5.3528                 6.1940
 Frc consts  --      0.7993                 1.3439                 1.5615
 IR Inten    --     18.2876                56.1210                27.6593

                     40                     41                     42
                      A                      A                      A
 Frequencies --    719.2231               737.7984               766.9035
 Red. masses --      7.8531                 4.5015                 1.1326
 Frc consts  --      2.3934                 1.4437                 0.3925
 IR Inten    --     30.5693                 0.2167                20.7575

                     43                     44                     45
                      A                      A                      A
 Frequencies --    768.0624               788.4413               792.4900
 Red. masses --      9.1366                 7.7381                 8.4535
 Frc consts  --      3.1756                 2.8341                 3.1281
 IR Inten    --     14.9238                48.1697                45.5792

                     46                     47                     48
                      A                      A                      A
 Frequencies --    822.2334               842.0109               857.7187
 Red. masses --      1.4916                 1.3403                 1.5109
 Frc consts  --      0.5941                 0.5599                 0.6549
 IR Inten    --     30.3730                29.0683               193.9387

                     49                     50                     51
                      A                      A                      A
 Frequencies --    887.6603               900.1207               909.9087
 Red. masses --      1.5615                 2.1774                 1.1510
 Frc consts  --      0.7249                 1.0394                 0.5615
 IR Inten    --     59.8926                51.1356                 2.5526

                     52                     53                     54
                      A                      A                      A
 Frequencies --    927.3984               948.8395               992.8139
 Red. masses --      2.0184                 3.3896                 1.3304
 Frc consts  --      1.0228                 1.7980                 0.7726
 IR Inten    --      3.5792                40.8808                 2.2146

                     55                     56                     57
                      A                      A                      A
 Frequencies --   1012.9899              1024.7326              1037.8898
 Red. masses --      7.4297                 1.6608                 5.4770
 Frc consts  --      4.4919                 1.0275                 3.4761
 IR Inten    --      9.6859                22.6638                50.0908

                     58                     59                     60
                      A                      A                      A
 Frequencies --   1075.7481              1110.4596              1110.9685
 Red. masses --      2.4151                 2.2689                 1.8419
 Frc consts  --      1.6467                 1.6484                 1.3394
 IR Inten    --      1.6004                19.0166                 3.5900

                     61                     62                     63
                      A                      A                      A
 Frequencies --   1116.0537              1132.2436              1138.0557
 Red. masses --      6.3828                 2.9470                12.5176
 Frc consts  --      4.6841                 2.2259                 9.5521
 IR Inten    --    434.6696               382.9031               471.0791

                     64                     65                     66
                      A                      A                      A
 Frequencies --   1161.8767              1165.2036              1191.3407
 Red. masses --      3.2699                 2.5999                 1.6507
 Frc consts  --      2.6008                 2.0798                 1.3803
 IR Inten    --    162.3033                61.0190                 1.4129

                     67                     68                     69
                      A                      A                      A
 Frequencies --   1198.1150              1266.6725              1289.0547
 Red. masses --      1.5812                 2.8067                 1.1874
 Frc consts  --      1.3373                 2.6532                 1.1625
 IR Inten    --    188.7175              1183.8230                 2.7926

                     70                     71                     72
                      A                      A                      A
 Frequencies --   1291.6934              1295.8935              1304.7027
 Red. masses --      2.0737                 1.1674                 2.9733
 Frc consts  --      2.0385                 1.1551                 2.9820
 IR Inten    --    178.9375                 0.9027                60.9540

                     73                     74                     75
                      A                      A                      A
 Frequencies --   1335.7178              1336.3189              1347.0059
 Red. masses --      1.7355                 1.0729                 1.7722
 Frc consts  --      1.8243                 1.1288                 1.8945
 IR Inten    --     95.7947                 2.8854               243.6665

                     76                     77                     78
                      A                      A                      A
 Frequencies --   1349.0543              1364.9806              1416.1838
 Red. masses --      2.3144                 4.9891                 1.3619
 Frc consts  --      2.4817                 5.4768                 1.6093
 IR Inten    --    202.8832               586.1912                58.2883

                     79                     80                     81
                      A                      A                      A
 Frequencies --   1420.0396              1441.9131              1444.2451
 Red. masses --      1.2748                 1.7649                 2.0756
 Frc consts  --      1.5146                 2.1619                 2.5508
 IR Inten    --      8.7605                49.1380               352.0878

                     82                     83                     84
                      A                      A                      A
 Frequencies --   1452.7634              1463.9877              1484.2573
 Red. masses --      2.7973                 1.6224                 1.0628
 Frc consts  --      3.4784                 2.0487                 1.3795
 IR Inten    --    116.2724               113.6235                 0.9216

                     85                     86                     87
                      A                      A                      A
 Frequencies --   1499.4751              1502.8918              1505.9551
 Red. masses --      1.0384                 1.0387                 1.0893
 Frc consts  --      1.3756                 1.3823                 1.4555
 IR Inten    --     13.8799                13.4200                82.6794

                     88                     89                     90
                      A                      A                      A
 Frequencies --   1508.5956              1522.0003              1537.9198
 Red. masses --      1.0888                 1.0957                 7.6598
 Frc consts  --      1.4600                 1.4955                10.6742
 IR Inten    --      4.0792                28.7611              1211.1496

                     91                     92                     93
                      A                      A                      A
 Frequencies --   1558.6743              1600.2530              1661.2500
 Red. masses --      3.1288                 2.9273                 4.3646
 Frc consts  --      4.4785                 4.4166                 7.0968
 IR Inten    --     37.8031               680.8223               797.9734

                     94                     95                     96
                      A                      A                      A
 Frequencies --   1681.6683              1738.7484              3070.3665
 Red. masses --      3.1493                 8.4009                 1.0371
 Frc consts  --      5.2475                14.9640                 5.7605
 IR Inten    --      1.3570               865.2253                31.0523

                     97                     98                     99
                      A                      A                      A
 Frequencies --   3073.8010              3076.8875              3078.3768
 Red. masses --      1.0373                 1.0619                 1.0603
 Frc consts  --      5.7742                 5.9232                 5.9197
 IR Inten    --     47.2446                16.8695                22.9743

                    100                    101                    102
                      A                      A                      A
 Frequencies --   3093.1206              3110.1806              3113.7945
 Red. masses --      1.0570                 1.1011                 1.1042
 Frc consts  --      5.9581                 6.2754                 6.3075
 IR Inten    --     61.1299                 8.4196                 1.6059

                    103                    104                    105
                      A                      A                      A
 Frequencies --   3137.4263              3141.8764              3146.8458
 Red. masses --      1.1049                 1.1025                 1.1036
 Frc consts  --      6.4081                 6.4125                 6.4390
 IR Inten    --     24.9134                56.3104                60.0196

                    106                    107                    108
                      A                      A                      A
 Frequencies --   3149.1520              3150.8003              3190.7120
 Red. masses --      1.1024                 1.1097                 1.0893
 Frc consts  --      6.4413                 6.4906                 6.5339
 IR Inten    --     41.2769                94.4303              1590.8834

                    109                    110                    111
                      A                      A                      A
 Frequencies --   3232.5667              3250.0441              3292.9210
 Red. masses --      1.0912                 1.0949                 1.0922
 Frc consts  --      6.7179                 6.8140                 6.9774
 IR Inten    --      0.5948                 0.2518                21.8088

 - Thermochemistry -
 -------------------
 Temperature   298.150 Kelvin.  Pressure   1.00000 Atm.
 Atom     1 has atomic number  6 and mass  12.00000

 Molecular mass:   354.07200 amu.
 Principal axes and moments of inertia in atomic units:
                           1         2         3
     Eigenvalues --  5018.45291********************
           X            0.99999  -0.00390   0.00044
           Y            0.00390   0.99999  -0.00128
           Z           -0.00043   0.00128   1.00000
 This molecule is an asymmetric top.
 Rotational symmetry number  1.
 Warning -- assumption of classical behavior for rotation
           may cause significant error
 Rotational temperatures (Kelvin)      0.01726     0.00487     0.00394
 Rotational constants (GHZ):           0.35962     0.10144     0.08218
 Zero-point vibrational energy     769477.7 (Joules/Mol)
                                  183.90958 (Kcal/Mol)
 Warning -- explicit consideration of  36 degrees of freedom as
           vibrations may cause significant error
 Vibrational temperatures:     13.70    31.71    33.97    50.39    58.36
          (Kelvin)             79.82    81.93    86.74    95.99   104.83
                              112.02   135.59   164.54   181.52   210.85
                              237.59   241.09   268.63   302.46   350.41
                              358.22   361.39   375.51   439.66   458.47
                              507.07   558.72   604.13   611.61   649.40
                              678.86   734.75   738.38   811.68   842.03
                              860.09   907.69   939.20   941.14  1034.80
                             1061.53  1103.40  1105.07  1134.39  1140.22
                             1183.01  1211.47  1234.07  1277.15  1295.07
                             1309.16  1334.32  1365.17  1428.44  1457.47
                             1474.36  1493.29  1547.76  1597.70  1598.44
                             1605.75  1629.05  1637.41  1671.68  1676.47
                             1714.07  1723.82  1822.46  1854.66  1858.46
                             1864.50  1877.18  1921.80  1922.66  1938.04
                             1940.99  1963.90  2037.57  2043.12  2074.59
                             2077.95  2090.20  2106.35  2135.52  2157.41
                             2162.33  2166.73  2170.53  2189.82  2212.72
                             2242.58  2302.41  2390.17  2419.55  2501.67
                             4417.57  4422.51  4426.95  4429.10  4450.31
                             4474.86  4480.06  4514.06  4520.46  4527.61
                             4530.93  4533.30  4590.72  4650.94  4676.09
                             4737.78

 Zero-point correction=                           0.293079 (Hartree/Particle)
 Thermal correction to Energy=                    0.317720
 Thermal correction to Enthalpy=                  0.318664
 Thermal correction to Gibbs Free Energy=         0.232421
 Sum of electronic and zero-point Energies=          -1658.316296
 Sum of electronic and thermal Energies=             -1658.291654
 Sum of electronic and thermal Enthalpies=           -1658.290710
 Sum of electronic and thermal Free Energies=        -1658.376954

                     E (Thermal)             CV                S
                      KCal/Mol        Cal/Mol-Kelvin    Cal/Mol-Kelvin
 Total                  199.372             85.347            181.514
 Electronic               0.000              0.000              0.000
 Translational            0.889              2.981             43.487
 Rotational               0.889              2.981             35.926
 Vibrational            197.595             79.385            102.101
 Vibration     1          0.593              1.987              8.108
 Vibration     2          0.593              1.985              6.441
 Vibration     3          0.593              1.985              6.305
 Vibration     4          0.594              1.982              5.522
 Vibration     5          0.594              1.981              5.231
 Vibration     6          0.596              1.975              4.612
 Vibration     7          0.596              1.975              4.560
 Vibration     8          0.597              1.973              4.448
 Vibration     9          0.598              1.970              4.248
 Vibration    10          0.599              1.967              4.075
 Vibration    11          0.599              1.964              3.944
 Vibration    12          0.603              1.953              3.570
 Vibration    13          0.607              1.938              3.193
 Vibration    14          0.611              1.927              3.004
 Vibration    15          0.617              1.906              2.717
 Vibration    16          0.624              1.885              2.490
 Vibration    17          0.624              1.882              2.463
 Vibration    18          0.632              1.858              2.260
 Vibration    19          0.642              1.825              2.042
 Vibration    20          0.659              1.773              1.777
 Vibration    21          0.662              1.764              1.738
 Vibration    22          0.663              1.761              1.722
 Vibration    23          0.669              1.744              1.655
 Vibration    24          0.696              1.663              1.386
 Vibration    25          0.705              1.638              1.317
 Vibration    26          0.729              1.570              1.155
 Vibration    27          0.757              1.495              1.007
 Vibration    28          0.783              1.427              0.892
 Vibration    29          0.787              1.416              0.875
 Vibration    30          0.810              1.358              0.792
 Vibration    31          0.829              1.313              0.732
 Vibration    32          0.866              1.226              0.632
 Vibration    33          0.868              1.221              0.626
 Vibration    34          0.920              1.109              0.516
 Vibration    35          0.942              1.063              0.476
 Vibration    36          0.956              1.036              0.453

 Optimization completed.
    -- Stationary point found.
 Normal termination of Gaussian 16 at Mon Mar 22 22:46:33 2021.
