 Gaussian 16, Revision C.01,

 ----------------------------------------------------------------------
 # M062X/6-311+G* SCF=Tight INT(grid=ultrafine) OPT=CalcFC IOP(2/17=4)
 EmpiricalDispersion=GD3 MaxDisk=10000MB
 ----------------------------------------------------------------------

 -------------------------------------
 CP22CA_carboxy.M062X_6-311pGd_opt_GD3
 -------------------------------------
 Symbolic Z-matrix:
 Charge = -1 Multiplicity = 1

 SCF Done:  E(RM062X) =  -2218.06466550     A.U. after   17 cycles
 SCF Done:  E(RM062X) =  -2218.09414248     A.U. after   15 cycles
 SCF Done:  E(RM062X) =  -2218.13689094     A.U. after   15 cycles
 SCF Done:  E(RM062X) =  -2218.15097508     A.U. after   14 cycles
 SCF Done:  E(RM062X) =  -2218.14434766     A.U. after   14 cycles
 SCF Done:  E(RM062X) =  -2218.15144540     A.U. after   13 cycles
 SCF Done:  E(RM062X) =  -2218.15212486     A.U. after   10 cycles
 SCF Done:  E(RM062X) =  -2218.15259971     A.U. after   13 cycles
 SCF Done:  E(RM062X) =  -2218.11924226     A.U. after   14 cycles
 SCF Done:  E(RM062X) =  -2218.15263477     A.U. after   14 cycles
 SCF Done:  E(RM062X) =  -2218.15280793     A.U. after   12 cycles
 SCF Done:  E(RM062X) =  -2218.15280959     A.U. after   11 cycles
 SCF Done:  E(RM062X) =  -2218.15281008     A.U. after   11 cycles
 SCF Done:  E(RM062X) =  -2218.15281040     A.U. after   11 cycles
 SCF Done:  E(RM062X) =  -2218.15281064     A.U. after   11 cycles
 SCF Done:  E(RM062X) =  -2218.15281078     A.U. after   10 cycles
 SCF Done:  E(RM062X) =  -2218.15281086     A.U. after   10 cycles
 SCF Done:  E(RM062X) =  -2218.15281086     A.U. after    9 cycles
 SCF Done:  E(RM062X) =  -2218.15281086     A.U. after    8 cycles
 Optimization completed.
    -- Stationary point found.
 Normal termination of Gaussian 16 at Mon Mar 22 12:57:29 2021.
 Gaussian 16:  ES64L-G16RevC.01  3-Jul-2019

 ----------------------------------------------------------------------
 # M062X/6-311+G* SCF=Tight INT(grid=ultrafine) EmpiricalDispersion=GD3
  Freq=Noraman MaxDisk=10000MB geom=check guess=read IOP(2/17=4)
 ----------------------------------------------------------------------

 -------------------------------------
 CP22CA_carboxy.M062X_6-311pGd_opt_GD3
 -------------------------------------
 Structure from the checkpoint file:  "CP22CA_carboxy.M062X_6-311pGd_opt_GD3.chk"
 Charge = -1 Multiplicity = 1

                         Standard orientation:
 ---------------------------------------------------------------------
 Center     Atomic      Atomic             Coordinates (Angstroms)
 Number     Number       Type             X           Y           Z
 ---------------------------------------------------------------------
      1          6           0       -0.007481   -0.237981   -0.011811
      2          7           0        1.272430    0.301418   -0.012850
      3          6           0        1.565788    1.626875   -0.019766
      4          8           0        0.790602    2.562202   -0.028137
      5          8           0        2.904118    1.792324   -0.016752
      6          6           0        3.360150    3.137857   -0.020802
      7          6           0        4.875020    3.095791   -0.016469
      8          6           0        5.469004    4.501261   -0.019260
      9          6           0       -1.179801    0.533621   -0.000685
     10          6           0       -2.395196   -0.130656    0.001474
     11          6           0       -2.530286   -1.507694   -0.006277
     12          6           0       -1.345778   -2.235642   -0.017676
     13          6           0       -0.098841   -1.641608   -0.021289
     14          1           0        2.093892   -0.375379    0.000325
     15          1           0        2.970620    3.660834    0.858323
     16          1           0        2.975314    3.654146   -0.905907
     17          1           0        5.212672    2.531660   -0.889675
     18          1           0        5.207755    2.536898    0.861948
     19          1           0        5.155646    5.062652   -0.903858
     20          1           0        6.560260    4.470147   -0.016371
     21          1           0        5.151165    5.067987    0.860315
     22          1           0       -1.122760    1.610475    0.005405
     23         17           0       -1.454214   -3.978903   -0.028878
     24          1           0        0.806530   -2.255692   -0.034631
     25         16           0       -3.905054    0.863496    0.015504
     26          1           0       -3.492475   -1.999066   -0.004363
     27          9           0       -3.366300    1.875020   -1.123503
     28          9           0       -4.616060   -0.040894   -1.129193
     29          9           0       -3.354943    1.859976    1.162472
     30          9           0       -4.604688   -0.055897    1.155304
     31          9           0       -5.267118    1.745566    0.028138
     32          8           0        2.499289   -3.358682   -0.079489
     33          8           0        3.398019   -1.307489    0.038908
     34          6           0        3.456018   -2.568286   -0.011132
     35          6           0        4.865985   -3.189216    0.013409
     36          6           0        6.001419   -2.180128    0.121262
     37          1           0        4.962209   -3.795447   -0.893145
     38          1           0        4.887818   -3.900006    0.845531
     39          1           0        5.974253   -1.478667   -0.714233
     40          1           0        6.978117   -2.675141    0.130624
     41          1           0        5.904233   -1.585829    1.031461
 ---------------------------------------------------------------------

 SCF Done:  E(RM062X) =  -2218.15281086     A.U. after    2 cycles

 The electronic state is 1-A.
 Alpha  occ. eigenvalues -- -102.58221 -90.18941 -25.19530 -25.19529 -25.19512
 Alpha  occ. eigenvalues --  -25.19512 -25.19392 -19.56379 -19.50409 -19.43445
 Alpha  occ. eigenvalues --  -19.42495 -14.66684 -10.59625 -10.52179 -10.51328
 Alpha  occ. eigenvalues --  -10.51232 -10.50546 -10.49371 -10.47796 -10.46743
 Alpha  occ. eigenvalues --  -10.46077 -10.45737 -10.45309 -10.40926 -10.40791
 Alpha  occ. eigenvalues --   -9.72492  -8.51280  -7.45005  -7.44337  -7.44316
 Alpha  occ. eigenvalues --   -6.43698  -6.43685  -6.43227  -1.41140  -1.31208
 Alpha  occ. eigenvalues --   -1.31137  -1.28105  -1.26781  -1.14442  -1.04361
 Alpha  occ. eigenvalues --   -1.02168  -0.95764  -0.92523  -0.91246  -0.87489
 Alpha  occ. eigenvalues --   -0.83252  -0.81472  -0.76936  -0.74933  -0.74065
 Alpha  occ. eigenvalues --   -0.71259  -0.66388  -0.65075  -0.64711  -0.63665
 Alpha  occ. eigenvalues --   -0.60397  -0.59922  -0.58285  -0.56447  -0.55109
 Alpha  occ. eigenvalues --   -0.54006  -0.53358  -0.52109  -0.50311  -0.49524
 Alpha  occ. eigenvalues --   -0.49375  -0.48937  -0.46558  -0.46458  -0.46213
 Alpha  occ. eigenvalues --   -0.46179  -0.45913  -0.45722  -0.44464  -0.43660
 Alpha  occ. eigenvalues --   -0.43654  -0.43240  -0.42706  -0.41657  -0.41538
 Alpha  occ. eigenvalues --   -0.40675  -0.39947  -0.39650  -0.39584  -0.37901
 Alpha  occ. eigenvalues --   -0.37359  -0.36392  -0.35621  -0.35545  -0.33795
 Alpha  occ. eigenvalues --   -0.33264  -0.33129  -0.32713  -0.31995  -0.31926
 Alpha  occ. eigenvalues --   -0.30063  -0.28820  -0.28579  -0.27969  -0.27752
 Alpha  occ. eigenvalues --   -0.26301  -0.21972  -0.18958  -0.18693  -0.18099
 Alpha  occ. eigenvalues --   -0.17301
 Alpha virt. eigenvalues --    0.06594   0.08096   0.08447   0.10017   0.10143
 Alpha virt. eigenvalues --    0.10297   0.10857   0.10979   0.11514   0.12272
 Alpha virt. eigenvalues --    0.12352   0.12549   0.13080   0.13489   0.13647

 Mulliken charges:
               1
     1  C   -0.389791
     2  N   -0.612179
     3  C   -0.139621
     4  O   -0.333400
     5  O    0.001966
     6  C   -0.237836
     7  C   -0.144271
     8  C   -1.102215
     9  C   -0.353870
    10  C   -0.693417
    11  C   -0.630109
    12  C    0.315650
    13  C   -0.395223
    14  H    0.592816
    15  H    0.246380
    16  H    0.244307
    17  H    0.267109
    18  H    0.267706
    19  H    0.249725
    20  H    0.261157
    21  H    0.249710
    22  H    0.339592
    23  Cl   0.408763
    24  H    0.442450
    25  S    0.537306
    26  H    0.300730
    27  F    0.053611
    28  F    0.053011
    29  F    0.053297
    30  F    0.052211
    31  F   -0.016540
    32  O   -0.428859
    33  O   -0.449337
    34  C    0.024020
    35  C   -0.295110
    36  C   -0.962790
    37  H    0.244944
    38  H    0.243968
    39  H    0.254737
    40  H    0.224516
    41  H    0.254889
 Sum of Mulliken charges =  -1.00000

 Dipole moment (field-independent basis, Debye):
    X=             -2.0784    Y=              5.3524    Z=              0.0756  Tot=              5.7423
 Quadrupole moment (field-independent basis, Debye-Ang):
   XX=           -217.8130   YY=           -201.0879   ZZ=           -165.3105
   XY=             27.1267   XZ=             -0.0524   YZ=             -0.5296

  Exact polarizability:     271.386      16.253     256.569       0.386       0.763     138.607
 Approx polarizability:     276.518      13.436     298.227       0.174       1.092     185.567

                      1                      2                      3
                      A                      A                      A
 Frequencies --      9.2539                18.2625                25.1254
 Red. masses --      6.0046                 9.1864                 6.8831
 Frc consts  --      0.0003                 0.0018                 0.0026
 IR Inten    --      0.3453                 1.0757                 0.4456

                      4                      5                      6
                      A                      A                      A
 Frequencies --     28.7539                33.9675                38.0826
 Red. masses --      2.5688                 5.9826                 2.3548
 Frc consts  --      0.0013                 0.0041                 0.0020
 IR Inten    --      0.0361                 0.2821                 1.3078

                      7                      8                      9
                      A                      A                      A
 Frequencies --     41.4663                53.0287                56.1937
 Red. masses --      4.5516                 6.4717                 2.9711
 Frc consts  --      0.0046                 0.0107                 0.0055
 IR Inten    --      1.7606                 0.7781                 2.5553

                     10                     11                     12
                      A                      A                      A
 Frequencies --     76.7399                77.5930                91.5028
 Red. masses --      5.6424                 5.8020                 5.0772
 Frc consts  --      0.0196                 0.0206                 0.0250
 IR Inten    --      2.5608                 1.4596                 3.7858

                     13                     14                     15
                      A                      A                      A
 Frequencies --    109.0440               118.4450               133.8409
 Red. masses --      9.7123                 5.3916                 6.7866
 Frc consts  --      0.0680                 0.0446                 0.0716
 IR Inten    --      5.9706                 0.1849                26.3468

                     16                     17                     18
                      A                      A                      A
 Frequencies --    154.0003               165.7649               194.5575
 Red. masses --      9.6844                 3.3773                10.8219
 Frc consts  --      0.1353                 0.0547                 0.2414
 IR Inten    --      1.4839                 3.4945                 1.0670

                     19                     20                     21
                      A                      A                      A
 Frequencies --    198.7276               219.7907               241.7177
 Red. masses --      5.8589                 1.1187                 1.1225
 Frc consts  --      0.1363                 0.0318                 0.0386
 IR Inten    --      0.1110                 0.4759                 0.0058

                     22                     23                     24
                      A                      A                      A
 Frequencies --    243.4629               263.9066               273.8976
 Red. masses --      5.6451                 5.1597                 7.9065
 Frc consts  --      0.1971                 0.2117                 0.3495
 IR Inten    --      7.7443                 0.3020                 1.5082

                     25                     26                     27
                      A                      A                      A
 Frequencies --    277.2815               312.2767               325.6657
 Red. masses --      8.3228                 4.2022                 6.6023
 Frc consts  --      0.3770                 0.2414                 0.4126
 IR Inten    --      0.0044                10.2493                42.9406

                     28                     29                     30
                      A                      A                      A
 Frequencies --    338.1526               367.6452               386.9384
 Red. masses --     18.9312                 5.5816                15.4307
 Frc consts  --      1.2754                 0.4445                 1.3612
 IR Inten    --      0.0018                31.2196                 5.6688

                     31                     32                     33
                      A                      A                      A
 Frequencies --    392.3133               448.8675               452.2071
 Red. masses --     11.8510                16.8848                 8.8693
 Frc consts  --      1.0747                 2.0044                 1.0686
 IR Inten    --      1.0554                 0.3434                 2.9496

                     34                     35                     36
                      A                      A                      A
 Frequencies --    458.1502               501.7755               512.2267
 Red. masses --      4.9648                 6.6789                 5.6110
 Frc consts  --      0.6140                 0.9908                 0.8674
 IR Inten    --      3.0426                 3.9434                 9.3310

                     37                     38                     39
                      A                      A                      A
 Frequencies --    536.3433               553.0641               565.5517
 Red. masses --     14.4896                13.4443                 6.2658
 Frc consts  --      2.4558                 2.4229                 1.1808
 IR Inten    --      9.6192                 6.7345                 1.4773

                     40                     41                     42
                      A                      A                      A
 Frequencies --    578.7808               585.5298               589.5523
 Red. masses --     18.6121                 1.9519                18.3871
 Frc consts  --      3.6734                 0.3943                 3.7654
 IR Inten    --     70.3936                 1.5770                 0.2766

                     43                     44                     45
                      A                      A                      A
 Frequencies --    622.1651               641.1499               655.5434
 Red. masses --      6.4329                14.8160                 5.5326
 Frc consts  --      1.4671                 3.5884                 1.4008
 IR Inten    --      2.2838                56.9128                25.7133

                     46                     47                     48
                      A                      A                      A
 Frequencies --    666.0867               692.1404               738.9675
 Red. masses --      6.0158                 3.0814                11.7036
 Frc consts  --      1.5726                 0.8697                 3.7655
 IR Inten    --     38.6314                 7.2482               227.0338

                     49                     50                     51
                      A                      A                      A
 Frequencies --    757.8641               789.6640               800.9959
 Red. masses --      1.0922                 8.6541                 9.4370
 Frc consts  --      0.3696                 3.1795                 3.5673
 IR Inten    --      2.6677                 6.4778                12.4437

                     52                     53                     54
                      A                      A                      A
 Frequencies --    823.6283               844.9382               855.8258
 Red. masses --      1.4640                 1.7158                17.9547
 Frc consts  --      0.5851                 0.7217                 7.7482
 IR Inten    --      6.8095                21.3709               434.0415

                     55                     56                     57
                      A                      A                      A
 Frequencies --    858.4423               867.8910               884.4846
 Red. masses --      5.3926                16.1549                 4.2608
 Frc consts  --      2.3414                 7.1694                 1.9639
 IR Inten    --    360.2145               219.4636                18.5148

                     58                     59                     60
                      A                      A                      A
 Frequencies --    901.4514               909.7889               925.5733
 Red. masses --      1.1515                 1.4270                 1.7282
 Frc consts  --      0.5513                 0.6959                 0.8723
 IR Inten    --      1.8479                44.9660                47.6259

                     61                     62                     63
                      A                      A                      A
 Frequencies --    968.2929              1006.6037              1017.2728
 Red. masses --      5.8777                 5.3494                 1.7153
 Frc consts  --      3.2469                 3.1936                 1.0459
 IR Inten    --    138.9079                26.5545                 8.1422

                     64                     65                     66
                      A                      A                      A
 Frequencies --   1028.9199              1032.8180              1076.4012
 Red. masses --      6.5809                 1.2380                 2.5026
 Frc consts  --      4.1049                 0.7781                 1.7084
 IR Inten    --      1.5140                 2.3555                 0.3245

                     67                     68                     69
                      A                      A                      A
 Frequencies --   1100.7806              1107.6100              1109.7504
 Red. masses --      1.1276                 1.6483                 2.3586
 Frc consts  --      0.8050                 1.1914                 1.7114
 IR Inten    --     77.2070                 4.4349                 9.1617

                     70                     71                     72
                      A                      A                      A
 Frequencies --   1149.9959              1161.0781              1166.7690
 Red. masses --      1.5252                 7.0558                 2.4025
 Frc consts  --      1.1884                 5.6043                 1.9270
 IR Inten    --      5.1144               114.3725                 0.4285

                     73                     74                     75
                      A                      A                      A
 Frequencies --   1179.6682              1195.8448              1287.3676
 Red. masses --      1.8989                 1.6721                 1.1859
 Frc consts  --      1.5569                 1.4088                 1.1579
 IR Inten    --    162.2926                 0.6794                 0.5670

                     76                     77                     78
                      A                      A                      A
 Frequencies --   1289.9324              1291.2557              1310.3213
 Red. masses --      1.1852                 2.8443                 3.7748
 Frc consts  --      1.1620                 2.7941                 3.8186
 IR Inten    --      0.4910               344.6440               274.7347

                     79                     80                     81
                      A                      A                      A
 Frequencies --   1330.2571              1331.2491              1332.3056
 Red. masses --      1.5498                 1.0749                 1.5897
 Frc consts  --      1.6158                 1.1224                 1.6626
 IR Inten    --    100.8521                 0.0344               169.3353

                     82                     83                     84
                      A                      A                      A
 Frequencies --   1352.4342              1381.4213              1413.3420
 Red. masses --      1.6532                 2.8741                 1.4697
 Frc consts  --      1.7815                 3.2315                 1.7297
 IR Inten    --    158.5186               245.1644                87.3955

                     85                     86                     87
                      A                      A                      A
 Frequencies --   1427.4813              1444.3012              1448.6916
 Red. masses --      1.2684                 2.6093                 2.0206
 Frc consts  --      1.5228                 3.2069                 2.4985
 IR Inten    --      4.9213               333.9702               129.0448

                     88                     89                     90
                      A                      A                      A
 Frequencies --   1468.0331              1486.1978              1506.9127
 Red. masses --      3.0964                 1.1378                 1.0678
 Frc consts  --      3.9317                 1.4808                 1.4286
 IR Inten    --     50.0144                 5.3341                 3.0203

                     91                     92                     93
                      A                      A                      A
 Frequencies --   1509.0871              1520.0337              1523.9232
 Red. masses --      1.0376                 1.0809                 1.0378
 Frc consts  --      1.3922                 1.4714                 1.4200
 IR Inten    --      5.7980                47.0058                 8.5177

                     94                     95                     96
                      A                      A                      A
 Frequencies --   1525.4012              1528.6765              1539.9342
 Red. masses --      1.0862                 2.8956                 1.1009
 Frc consts  --      1.4891                 3.9868                 1.5382
 IR Inten    --      2.8303               165.9024                 9.7119

                     97                     98                     99
                      A                      A                      A
 Frequencies --   1620.3432              1657.2127              1687.9455
 Red. masses --      4.9168                 7.3505                 5.6385
 Frc consts  --      7.6059                11.8939                 9.4651
 IR Inten    --    101.0135                34.8772               501.8660

                    100                    101                    102
                      A                      A                      A
 Frequencies --   1710.5862              1799.7969              2635.5874
 Red. masses --      1.7352                 7.5078                 1.1286
 Frc consts  --      2.9915                14.3287                 4.6191
 IR Inten    --    774.1786               263.8159              2496.0593

                    103                    104                    105
                      A                      A                      A
 Frequencies --   3054.8696              3061.0758              3065.4434
 Red. masses --      1.0445                 1.0390                 1.0553
 Frc consts  --      5.7430                 5.7360                 5.8425
 IR Inten    --     81.1882                16.3275                48.0223

                    106                    107                    108
                      A                      A                      A
 Frequencies --   3069.3279              3080.9915              3088.0017
 Red. masses --      1.0600                 1.1000                 1.0609
 Frc consts  --      5.8835                 6.1521                 5.9604
 IR Inten    --     33.5390               428.2374                29.8890

                    109                    110                    111
                      A                      A                      A
 Frequencies --   3099.5505              3099.7099              3115.7881
 Red. masses --      1.1014                 1.1059                 1.1038
 Frc consts  --      6.2344                 6.2605                 6.3138
 IR Inten    --     17.2999                 9.9489                 0.7246

                    112                    113                    114
                      A                      A                      A
 Frequencies --   3127.4810              3137.6306              3140.5257
 Red. masses --      1.0943                 1.1009                 1.1053
 Frc consts  --      6.3065                 6.3856                 6.4231
 IR Inten    --     40.8206                39.1191                62.0984

                    115                    116                    117
                      A                      A                      A
 Frequencies --   3149.0726              3267.8802              3292.6502
 Red. masses --      1.1023                 1.0929                 1.0912
 Frc consts  --      6.4403                 6.8767                 6.9704
 IR Inten    --     36.9680                 3.7278                23.0632

 - Thermochemistry -
 -------------------
 Temperature   298.150 Kelvin.  Pressure   1.00000 Atm.
 Atom     1 has atomic number  6 and mass  12.00000

 Molecular mass:   412.04087 amu.
 Principal axes and moments of inertia in atomic units:
                           1         2         3
     Eigenvalues --  8193.21000********************
           X            0.99964   0.02670   0.00043
           Y           -0.02670   0.99964  -0.00068
           Z           -0.00045   0.00067   1.00000
 This molecule is an asymmetric top.
 Rotational symmetry number  1.
 Warning -- assumption of classical behavior for rotation
           may cause significant error
 Rotational temperatures (Kelvin)      0.01057     0.00477     0.00339
 Rotational constants (GHZ):           0.22027     0.09947     0.07058
 Zero-point vibrational energy     776363.8 (Joules/Mol)
                                  185.55539 (Kcal/Mol)
 Warning -- explicit consideration of  42 degrees of freedom as
           vibrations may cause significant error
 Vibrational temperatures:     13.31    26.28    36.15    41.37    48.87
          (Kelvin)             54.79    59.66    76.30    80.85   110.41
                              111.64   131.65   156.89   170.42   192.57
                              221.57   238.50   279.92   285.92   316.23
                              347.78   350.29   379.70   394.08   398.95
                              449.30   468.56   486.53   528.96   556.72
                              564.45   645.82   650.63   659.18   721.94
                              736.98   771.68   795.74   813.70   832.74
                              842.45   848.23   895.16   922.47   943.18
                              958.35   995.84  1063.21  1090.40  1136.15
                             1152.45  1185.02  1215.68  1231.34  1235.11
                             1248.70  1272.58  1296.99  1308.98  1331.69
                             1393.16  1448.28  1463.63  1480.39  1485.99
                             1548.70  1583.78  1593.60  1596.68  1654.59
                             1670.53  1678.72  1697.28  1720.55  1852.23
                             1855.93  1857.83  1885.26  1913.94  1915.37
                             1916.89  1945.85  1987.56  2033.48  2053.83
                             2078.03  2084.34  2112.17  2138.31  2168.11
                             2171.24  2186.99  2192.59  2194.71  2199.42
                             2215.62  2331.31  2384.36  2428.58  2461.15
                             2589.51  3792.02  4395.28  4404.21  4410.49
                             4416.08  4432.86  4442.95  4459.56  4459.79
                             4482.92  4499.75  4514.35  4518.52  4530.81
                             4701.75  4737.39

 Zero-point correction=                           0.295701 (Hartree/Particle)
 Thermal correction to Energy=                    0.322576
 Thermal correction to Enthalpy=                  0.323520
 Thermal correction to Gibbs Free Energy=         0.231947
 Sum of electronic and zero-point Energies=          -2217.857110
 Sum of electronic and thermal Energies=             -2217.830235
 Sum of electronic and thermal Enthalpies=           -2217.829291
 Sum of electronic and thermal Free Energies=        -2217.920864

                     E (Thermal)             CV                S
                      KCal/Mol        Cal/Mol-Kelvin    Cal/Mol-Kelvin
 Total                  202.419             94.776            192.732
 Electronic               0.000              0.000              0.000
 Translational            0.889              2.981             43.939
 Rotational               0.889              2.981             36.584
 Vibrational            200.642             88.815            112.209
 Vibration     1          0.593              1.987              8.165
 Vibration     2          0.593              1.986              6.815
 Vibration     3          0.593              1.985              6.181
 Vibration     4          0.593              1.984              5.914
 Vibration     5          0.594              1.983              5.583
 Vibration     6          0.594              1.982              5.356
 Vibration     7          0.594              1.981              5.188
 Vibration     8          0.596              1.976              4.701
 Vibration     9          0.596              1.975              4.587
 Vibration    10          0.599              1.965              3.973
 Vibration    11          0.599              1.964              3.951
 Vibration    12          0.602              1.955              3.628
 Vibration    13          0.606              1.942              3.286
 Vibration    14          0.609              1.934              3.126
 Vibration    15          0.613              1.920              2.890
 Vibration    16          0.620              1.898              2.622
 Vibration    17          0.624              1.885              2.483
 Vibration    18          0.635              1.847              2.184
 Vibration    19          0.637              1.842              2.145
 Vibration    20          0.647              1.811              1.961
 Vibration    21          0.658              1.776              1.790
 Vibration    22          0.659              1.774              1.777
 Vibration    23          0.670              1.739              1.636
 Vibration    24          0.676              1.722              1.571
 Vibration    25          0.678              1.715              1.550
 Vibration    26          0.701              1.650              1.350
 Vibration    27          0.710              1.624              1.282
 Vibration    28          0.718              1.599              1.221
 Vibration    29          0.740              1.539              1.090
 Vibration    30          0.755              1.498              1.012
 Vibration    31          0.760              1.487              0.991
 Vibration    32          0.808              1.363              0.799
 Vibration    33          0.811              1.356              0.789
 Vibration    34          0.816              1.343              0.772
 Vibration    35          0.857              1.246              0.654
 Vibration    36          0.867              1.223              0.628
 Vibration    37          0.891              1.170              0.573
 Vibration    38          0.908              1.133              0.538
 Vibration    39          0.921              1.106              0.513
 Vibration    40          0.935              1.077              0.488
 Vibration    41          0.943              1.063              0.475
 Vibration    42          0.947              1.054              0.468

 Optimization completed.
    -- Stationary point found.
 Normal termination of Gaussian 16 at Mon Mar 22 22:47:28 2021.
