 Gaussian 16, Revision C.01,

 ----------------------------------------------------------------------
 # M062X/6-311+G* SCF=Tight INT(grid=ultrafine) OPT=CalcFC IOP(2/17=4)
 EmpiricalDispersion=GD3 SCRF=(SMD,Solvent=n-Pentadecane) MaxDisk=10000
 MB
 ----------------------------------------------------------------------

 -------------------------------------------------
 CP22CA_carboxy.M062X_6-311pGd_opt_Pentadecane_GD3
 -------------------------------------------------
 Symbolic Z-matrix:
 Charge = -1 Multiplicity = 1

 SCF Done:  E(RM062X) =  -2218.10566025     A.U. after   17 cycles
 SCF Done:  E(RM062X) =  -2218.13851444     A.U. after   13 cycles
 SCF Done:  E(RM062X) =  -2218.18143447     A.U. after   15 cycles
 SCF Done:  E(RM062X) =  -2218.18945918     A.U. after   14 cycles
 SCF Done:  E(RM062X) =  -2218.18993104     A.U. after   14 cycles
 SCF Done:  E(RM062X) =  -2218.18647398     A.U. after   17 cycles
 SCF Done:  E(RM062X) =  -2218.19146982     A.U. after   14 cycles
 SCF Done:  E(RM062X) =  -2218.18991238     A.U. after   17 cycles
 SCF Done:  E(RM062X) =  -2218.19169031     A.U. after   14 cycles
 SCF Done:  E(RM062X) =  -2218.19201185     A.U. after   14 cycles
 SCF Done:  E(RM062X) =  -2218.19224419     A.U. after    9 cycles
 SCF Done:  E(RM062X) =  -2218.19224487     A.U. after    9 cycles
 SCF Done:  E(RM062X) =  -2218.19224470     A.U. after    9 cycles
 SCF Done:  E(RM062X) =  -2218.19224591     A.U. after   10 cycles
 SCF Done:  E(RM062X) =  -2218.19224664     A.U. after    9 cycles
 SCF Done:  E(RM062X) =  -2218.19224539     A.U. after   11 cycles
 SCF Done:  E(RM062X) =  -2218.19224672     A.U. after   11 cycles
 SCF Done:  E(RM062X) =  -2218.19224702     A.U. after   10 cycles
 SCF Done:  E(RM062X) =  -2218.19224716     A.U. after    8 cycles
 Optimization completed.
    -- Stationary point found.
 Normal termination of Gaussian 16 at Mon Mar 22 14:46:44 2021.
 Gaussian 16:  ES64L-G16RevC.01  3-Jul-2019

 ----------------------------------------------------------------------
 # M062X/6-311+G* SCF=Tight INT(grid=ultrafine) EmpiricalDispersion=GD3
  SCRF=(SMD,Solvent=n-Pentadecane) Freq=Noraman MaxDisk=10000MB geom=ch
 eck guess=read IOP(2/17=4)
 ----------------------------------------------------------------------

 -------------------------------------------------
 CP22CA_carboxy.M062X_6-311pGd_opt_Pentadecane_GD3
 -------------------------------------------------
 Structure from the checkpoint file:  "CP22CA_carboxy.M062X_6-311pGd_opt_Pentadecane_GD3.chk"
 Charge = -1 Multiplicity = 1

                         Standard orientation:
 ---------------------------------------------------------------------
 Center     Atomic      Atomic             Coordinates (Angstroms)
 Number     Number       Type             X           Y           Z
 ---------------------------------------------------------------------
      1          6           0       -0.004426   -0.223289   -0.033261
      2          7           0        1.271549    0.325989   -0.054771
      3          6           0        1.561564    1.655021   -0.026571
      4          8           0        0.774409    2.579042    0.010802
      5          8           0        2.893744    1.827734   -0.045643
      6          6           0        3.348502    3.179940    0.000728
      7          6           0        4.862108    3.150947   -0.037414
      8          6           0        5.438551    4.562185    0.007056
      9          6           0       -1.182617    0.537558   -0.021453
     10          6           0       -2.391926   -0.137031    0.004404
     11          6           0       -2.517935   -1.514739    0.021277
     12          6           0       -1.327336   -2.232338    0.004024
     13          6           0       -0.086278   -1.626765   -0.026163
     14          1           0        2.084973   -0.345596   -0.060656
     15          1           0        2.980748    3.654377    0.915415
     16          1           0        2.937099    3.731246   -0.849776
     17          1           0        5.183135    2.633873   -0.945609
     18          1           0        5.226340    2.560101    0.807198
     19          1           0        5.097192    5.158427   -0.843776
     20          1           0        6.529845    4.542891   -0.019549
     21          1           0        5.139288    5.085562    0.919451
     22          1           0       -1.135639    1.614714   -0.031292
     23         17           0       -1.416970   -3.976810    0.021843
     24          1           0        0.821937   -2.233750   -0.055043
     25         16           0       -3.907236    0.849537    0.014827
     26          1           0       -3.476150   -2.014266    0.043837
     27          9           0       -3.392962    1.824680   -1.167434
     28          9           0       -4.634285   -0.093844   -1.085340
     29          9           0       -3.339511    1.886466    1.116891
     30          9           0       -4.578951   -0.033157    1.197582
     31          9           0       -5.271010    1.726784    0.023644
     32          8           0        2.507225   -3.393500   -0.218342
     33          8           0        3.389072   -1.344304   -0.018839
     34          6           0        3.459278   -2.602743   -0.080297
     35          6           0        4.864020   -3.222724    0.021525
     36          6           0        5.988262   -2.221756    0.244113
     37          1           0        5.026494   -3.794668   -0.898020
     38          1           0        4.831913   -3.962988    0.827268
     39          1           0        6.015943   -1.483069   -0.558750
     40          1           0        6.961985   -2.719779    0.288765
     41          1           0        5.842599   -1.671539    1.175660
 ---------------------------------------------------------------------

 SCF Done:  E(RM062X) =  -2218.19224716     A.U. after    1 cycles

 The electronic state is 1-A.
 Alpha  occ. eigenvalues -- -102.63503 -90.24118 -25.24702 -25.24699 -25.24694
 Alpha  occ. eigenvalues --  -25.24689 -25.24556 -19.61479 -19.55657 -19.49188
 Alpha  occ. eigenvalues --  -19.48345 -14.72254 -10.64936 -10.57489 -10.56617
 Alpha  occ. eigenvalues --  -10.56576 -10.55123 -10.54869 -10.52966 -10.52037
 Alpha  occ. eigenvalues --  -10.50756 -10.49617 -10.49363 -10.46171 -10.46032
 Alpha  occ. eigenvalues --   -9.77772  -8.56457  -7.50285  -7.49616  -7.49595
 Alpha  occ. eigenvalues --   -6.48876  -6.48864  -6.48405  -1.46353  -1.36401
 Alpha  occ. eigenvalues --   -1.36334  -1.33296  -1.31969  -1.19593  -1.09536
 Alpha  occ. eigenvalues --   -1.07927  -1.01202  -0.98215  -0.96556  -0.92728
 Alpha  occ. eigenvalues --   -0.88436  -0.85643  -0.82061  -0.80225  -0.79426
 Alpha  occ. eigenvalues --   -0.75590  -0.71652  -0.70213  -0.69907  -0.68558
 Alpha  occ. eigenvalues --   -0.65746  -0.64153  -0.63487  -0.61640  -0.60297
 Alpha  occ. eigenvalues --   -0.59085  -0.58549  -0.57366  -0.55588  -0.54562
 Alpha  occ. eigenvalues --   -0.54148  -0.54089  -0.51744  -0.51654  -0.51512
 Alpha  occ. eigenvalues --   -0.51401  -0.51191  -0.51017  -0.49039  -0.48747
 Alpha  occ. eigenvalues --   -0.48703  -0.48130  -0.47884  -0.46810  -0.46354
 Alpha  occ. eigenvalues --   -0.46117  -0.45195  -0.44911  -0.44766  -0.42578
 Alpha  occ. eigenvalues --   -0.42356  -0.41599  -0.40456  -0.39488  -0.39224
 Alpha  occ. eigenvalues --   -0.38800  -0.37974  -0.37900  -0.36351  -0.36285
 Alpha  occ. eigenvalues --   -0.35417  -0.34111  -0.33876  -0.33321  -0.32748
 Alpha  occ. eigenvalues --   -0.31551  -0.27304  -0.24704  -0.24388  -0.23591
 Alpha  occ. eigenvalues --   -0.23125
 Alpha virt. eigenvalues --    0.01606   0.03140   0.04913   0.05021   0.05716
 Alpha virt. eigenvalues --    0.06367   0.06761   0.07239   0.07674   0.07986
 Alpha virt. eigenvalues --    0.08019   0.08222   0.08772   0.09120   0.09452

 Mulliken charges:
               1
     1  C   -0.400935
     2  N   -0.614274
     3  C   -0.115336
     4  O   -0.343102
     5  O   -0.017919
     6  C   -0.256252
     7  C   -0.147445
     8  C   -1.113493
     9  C   -0.346973
    10  C   -0.667668
    11  C   -0.617988
    12  C    0.325260
    13  C   -0.439056
    14  H    0.599053
    15  H    0.259146
    16  H    0.254227
    17  H    0.269993
    18  H    0.269816
    19  H    0.258841
    20  H    0.271627
    21  H    0.258663
    22  H    0.341195
    23  Cl   0.406865
    24  H    0.430109
    25  S    0.535519
    26  H    0.320080
    27  F    0.048687
    28  F    0.051460
    29  F    0.045335
    30  F    0.054770
    31  F   -0.014935
    32  O   -0.456772
    33  O   -0.482880
    34  C    0.048499
    35  C   -0.305802
    36  C   -0.967671
    37  H    0.253890
    38  H    0.252135
    39  H    0.256522
    40  H    0.239503
    41  H    0.257306
 Sum of Mulliken charges =  -1.00000

 Dipole moment (field-independent basis, Debye):
    X=             -1.9814    Y=              6.1090    Z=              0.3912  Tot=              6.4342
 Quadrupole moment (field-independent basis, Debye-Ang):
   XX=           -211.8873   YY=           -199.3820   ZZ=           -165.2573
   XY=             30.5150   XZ=              0.8291   YZ=             -1.9779

  Exact polarizability:     293.670      17.895     287.153       0.442       0.860     153.704
 Approx polarizability:     274.757      12.966     297.092      -0.487       0.979     185.315

                      1                      2                      3
                      A                      A                      A
 Frequencies --     27.9602                34.4797                43.6141
 Red. masses --      7.4975                 7.1399                 6.8410
 Frc consts  --      0.0035                 0.0050                 0.0077
 IR Inten    --      0.1804                 0.2544                 0.5568

                      4                      5                      6
                      A                      A                      A
 Frequencies --     46.7101                53.5812                58.6954
 Red. masses --      3.7015                 5.0354                 2.3363
 Frc consts  --      0.0048                 0.0085                 0.0047
 IR Inten    --      0.3675                 0.4647                 0.3694

                      7                      8                      9
                      A                      A                      A
 Frequencies --     68.1602                75.6985                82.5817
 Red. masses --      4.9455                 3.3010                 5.9514
 Frc consts  --      0.0135                 0.0111                 0.0239
 IR Inten    --      1.6691                 3.8846                 1.3441

                     10                     11                     12
                      A                      A                      A
 Frequencies --     86.8760                99.9170               108.3874
 Red. masses --      3.2119                 3.9575                 9.3589
 Frc consts  --      0.0143                 0.0233                 0.0648
 IR Inten    --      1.7001                 8.7819                10.4387

                     13                     14                     15
                      A                      A                      A
 Frequencies --    119.7581               123.7967               137.3951
 Red. masses --      8.0987                 5.3115                 9.0751
 Frc consts  --      0.0684                 0.0480                 0.1009
 IR Inten    --      0.7021                 0.9331                24.5458

                     16                     17                     18
                      A                      A                      A
 Frequencies --    158.5326               174.6048               194.7544
 Red. masses --      8.4692                 3.4686                10.5234
 Frc consts  --      0.1254                 0.0623                 0.2352
 IR Inten    --      4.5099                 3.1632                 1.2345

                     19                     20                     21
                      A                      A                      A
 Frequencies --    197.7252               242.6777               245.1158
 Red. masses --      5.7357                 1.9606                 1.6255
 Frc consts  --      0.1321                 0.0680                 0.0575
 IR Inten    --      0.4348                 2.6188                 6.0930

                     22                     23                     24
                      A                      A                      A
 Frequencies --    246.7360               268.0598               274.8364
 Red. masses --      1.2373                 4.9897                 7.8549
 Frc consts  --      0.0444                 0.2112                 0.3496
 IR Inten    --      0.9015                 0.5658                 2.6333

                     25                     26                     27
                      A                      A                      A
 Frequencies --    278.1059               315.5864               324.6133
 Red. masses --      8.2231                 4.1744                 6.3388
 Frc consts  --      0.3747                 0.2449                 0.3935
 IR Inten    --      0.1157                 6.7720                45.7240

                     28                     29                     30
                      A                      A                      A
 Frequencies --    338.2627               368.5418               386.5253
 Red. masses --     18.8209                 5.4861                15.2181
 Frc consts  --      1.2688                 0.4390                 1.3396
 IR Inten    --      0.0900                34.8486                 7.6580

                     31                     32                     33
                      A                      A                      A
 Frequencies --    392.2864               448.6224               451.4969
 Red. masses --     11.8591                13.8752                10.2148
 Frc consts  --      1.0752                 1.6453                 1.2269
 IR Inten    --      1.6131                 1.3217                 2.4477

                     34                     35                     36
                      A                      A                      A
 Frequencies --    461.1242               500.8507               519.8689
 Red. masses --      5.0519                 6.4983                 5.6174
 Frc consts  --      0.6329                 0.9604                 0.8945
 IR Inten    --      2.3378                 5.9575                12.5776

                     37                     38                     39
                      A                      A                      A
 Frequencies --    535.9036               551.9452               566.5181
 Red. masses --     14.8182                13.4849                 6.1498
 Frc consts  --      2.5074                 2.4204                 1.1629
 IR Inten    --     13.6849                10.6377                 2.3173

                     40                     41                     42
                      A                      A                      A
 Frequencies --    576.4877               583.7103               587.8108
 Red. masses --     18.5501                 1.9390                18.7248
 Frc consts  --      3.6323                 0.3893                 3.8119
 IR Inten    --     94.1073                 2.2437                 0.1923

                     43                     44                     45
                      A                      A                      A
 Frequencies --    622.9055               637.8728               656.6536
 Red. masses --      6.3434                15.7353                 5.3499
 Frc consts  --      1.4502                 3.7722                 1.3591
 IR Inten    --      3.0132                77.7348                31.3275

                     46                     47                     48
                      A                      A                      A
 Frequencies --    665.4333               692.9253               735.6305
 Red. masses --      6.0272                 2.9652                12.1878
 Frc consts  --      1.5724                 0.8388                 3.8859
 IR Inten    --     32.6942                11.2068               267.9478

                     49                     50                     51
                      A                      A                      A
 Frequencies --    765.3720               791.7559               801.6963
 Red. masses --      1.1012                 8.4546                 9.1592
 Frc consts  --      0.3801                 3.1227                 3.4684
 IR Inten    --      4.9802                11.1566                13.0507

                     52                     53                     54
                      A                      A                      A
 Frequencies --    825.8878               838.6468               843.0738
 Red. masses --      1.4923                17.4725                21.4231
 Frc consts  --      0.5997                 7.2404                 8.9715
 IR Inten    --      8.5942               402.3320               471.8677

                     55                     56                     57
                      A                      A                      A
 Frequencies --    859.4097               860.3526               887.9142
 Red. masses --      1.4053                14.1647                 4.0933
 Frc consts  --      0.6115                 6.1775                 1.9014
 IR Inten    --     71.9553               265.4652                33.4564

                     58                     59                     60
                      A                      A                      A
 Frequencies --    903.7234               909.0227               930.4061
 Red. masses --      1.4494                 1.1598                 1.7728
 Frc consts  --      0.6974                 0.5647                 0.9042
 IR Inten    --     35.5124                 5.3087                57.2754

                     61                     62                     63
                      A                      A                      A
 Frequencies --    968.5738              1006.2881              1016.6034
 Red. masses --      5.4854                 4.3398                 1.3009
 Frc consts  --      3.0320                 2.5892                 0.7922
 IR Inten    --    141.6292                25.0278                 1.2240

                     64                     65                     66
                      A                      A                      A
 Frequencies --   1025.1666              1031.5081              1058.8719
 Red. masses --      1.7367                 5.7920                 1.1049
 Frc consts  --      1.0754                 3.6310                 0.7299
 IR Inten    --     12.2465                 2.6539               100.4907

                     67                     68                     69
                      A                      A                      A
 Frequencies --   1080.6633              1106.6374              1112.8070
 Red. masses --      2.5333                 1.7816                 2.3457
 Frc consts  --      1.7431                 1.2855                 1.7114
 IR Inten    --      2.4427                 0.2274                10.4578

                     70                     71                     72
                      A                      A                      A
 Frequencies --   1144.6977              1151.9147              1168.7785
 Red. masses --      1.6008                 5.6723                 2.3585
 Frc consts  --      1.2359                 4.4345                 1.8983
 IR Inten    --      9.8068               150.2385                 2.5493

                     73                     74                     75
                      A                      A                      A
 Frequencies --   1177.3783              1195.9099              1287.5954
 Red. masses --      1.8850                 1.6655                 2.7249
 Frc consts  --      1.5395                 1.4034                 2.6617
 IR Inten    --    165.9875                 1.0945               428.0613

                     76                     77                     78
                      A                      A                      A
 Frequencies --   1293.2409              1295.2552              1310.4677
 Red. masses --      1.1791                 1.1812                 3.7083
 Frc consts  --      1.1619                 1.1676                 3.7522
 IR Inten    --      0.9124                 0.3208               334.9667

                     79                     80                     81
                      A                      A                      A
 Frequencies --   1328.3715              1335.7066              1339.7611
 Red. masses --      1.5936                 1.6174                 1.0839
 Frc consts  --      1.6568                 1.7001                 1.1463
 IR Inten    --    349.3924                67.9314                10.1176

                     82                     83                     84
                      A                      A                      A
 Frequencies --   1356.6566              1377.5130              1416.9566
 Red. masses --      1.5390                 3.0271                 1.4324
 Frc consts  --      1.6689                 3.3843                 1.6944
 IR Inten    --     94.4008               283.7037                83.2279

                     85                     86                     87
                      A                      A                      A
 Frequencies --   1430.1031              1447.2757              1451.4386
 Red. masses --      1.2702                 2.1277                 2.2770
 Frc consts  --      1.5306                 2.6258                 2.8263
 IR Inten    --      6.6737               249.9144               233.4391

                     88                     89                     90
                      A                      A                      A
 Frequencies --   1466.8620              1478.7079              1503.6068
 Red. masses --      2.9349                 1.2048                 1.0644
 Frc consts  --      3.7206                 1.5521                 1.4178
 IR Inten    --     75.2291                19.5389                 1.6370

                     91                     92                     93
                      A                      A                      A
 Frequencies --   1508.7941              1519.9914              1520.7814
 Red. masses --      1.0412                 1.0387                 1.0871
 Frc consts  --      1.3965                 1.4139                 1.4813
 IR Inten    --     11.6845                10.2382                56.5335

                     94                     95                     96
                      A                      A                      A
 Frequencies --   1521.7654              1526.3281              1536.6145
 Red. masses --      1.0942                 2.8899                 1.1022
 Frc consts  --      1.4929                 3.9666                 1.5334
 IR Inten    --      1.5935               181.1169                13.8879

                     97                     98                     99
                      A                      A                      A
 Frequencies --   1619.9585              1656.7304              1683.2024
 Red. masses --      4.5067                 8.3541                 7.3427
 Frc consts  --      6.9681                13.5100                12.2568
 IR Inten    --    142.6632               118.1694               950.6819

                    100                    101                    102
                      A                      A                      A
 Frequencies --   1697.5066              1797.2285              2798.6872
 Red. masses --      1.6840                 7.7040                 1.1127
 Frc consts  --      2.8591                14.6613                 5.1351
 IR Inten    --    475.8254               337.7087              2427.2464

                    103                    104                    105
                      A                      A                      A
 Frequencies --   3063.1159              3064.0638              3071.3364
 Red. masses --      1.0459                 1.0376                 1.0572
 Frc consts  --      5.7818                 5.7397                 5.8760
 IR Inten    --     65.3555                25.9370                28.6084

                    106                    107                    108
                      A                      A                      A
 Frequencies --   3073.3883              3087.1079              3097.9841
 Red. masses --      1.0577                 1.0603                 1.0998
 Frc consts  --      5.8866                 5.9536                 6.2190
 IR Inten    --     23.9926                35.6358               445.5870

                    109                    110                    111
                      A                      A                      A
 Frequencies --   3101.8703              3108.3803              3121.0011
 Red. masses --      1.1008                 1.1044                 1.1054
 Frc consts  --      6.2403                 6.2871                 6.3437
 IR Inten    --     16.2405                 7.9247                 0.0736

                    112                    113                    114
                      A                      A                      A
 Frequencies --   3133.0642              3141.7301              3142.6822
 Red. masses --      1.0962                 1.1050                 1.1019
 Frc consts  --      6.3397                 6.4262                 6.4119
 IR Inten    --     42.1233                67.5685                46.5930

                    115                    116                    117
                      A                      A                      A
 Frequencies --   3153.2986              3267.2918              3290.7795
 Red. masses --      1.1024                 1.0933                 1.0918
 Frc consts  --      6.4585                 6.8767                 6.9661
 IR Inten    --     41.8723                 7.3320                29.2944

 - Thermochemistry -
 -------------------
 Temperature   298.150 Kelvin.  Pressure   1.00000 Atm.
 Atom     1 has atomic number  6 and mass  12.00000

 Molecular mass:   412.04087 amu.
 Principal axes and moments of inertia in atomic units:
                           1         2         3
     Eigenvalues --  8306.50109********************
           X            0.99963   0.02721   0.00102
           Y           -0.02720   0.99963  -0.00080
           Z           -0.00104   0.00077   1.00000
 This molecule is an asymmetric top.
 Rotational symmetry number  1.
 Warning -- assumption of classical behavior for rotation
           may cause significant error
 Rotational temperatures (Kelvin)      0.01043     0.00479     0.00338
 Rotational constants (GHZ):           0.21727     0.09975     0.07044
 Zero-point vibrational energy     779113.5 (Joules/Mol)
                                  186.21258 (Kcal/Mol)
 Warning -- explicit consideration of  42 degrees of freedom as
           vibrations may cause significant error
 Vibrational temperatures:     40.23    49.61    62.75    67.21    77.09
          (Kelvin)             84.45    98.07   108.91   118.82   125.00
                              143.76   155.95   172.31   178.12   197.68
                              228.09   251.22   280.21   284.48   349.16
                              352.67   355.00   385.68   395.43   400.13
                              454.06   467.05   486.68   530.25   556.12
                              564.41   645.47   649.60   663.45   720.61
                              747.98   771.05   794.13   815.09   829.44
                              839.83   845.73   896.22   917.76   944.78
                              957.41   996.97  1058.41  1101.20  1139.16
                             1153.46  1188.27  1206.63  1213.00  1236.50
                             1237.86  1277.51  1300.26  1307.88  1338.65
                             1393.56  1447.82  1462.67  1474.99  1484.11
                             1523.48  1554.83  1592.20  1601.08  1646.96
                             1657.35  1681.61  1693.98  1720.65  1852.56
                             1860.69  1863.58  1885.47  1911.23  1921.78
                             1927.62  1951.93  1981.93  2038.68  2057.60
                             2082.31  2088.30  2110.49  2127.53  2163.35
                             2170.82  2186.93  2188.07  2189.48  2196.05
                             2210.85  2330.76  2383.67  2421.75  2442.33
                             2585.81  4026.69  4407.14  4408.50  4418.97
                             4421.92  4441.66  4457.31  4462.90  4472.27
                             4490.42  4507.78  4520.25  4521.62  4536.89
                             4700.90  4734.70

 Zero-point correction=                           0.296749 (Hartree/Particle)
 Thermal correction to Energy=                    0.323025
 Thermal correction to Enthalpy=                  0.323969
 Thermal correction to Gibbs Free Energy=         0.237860
 Sum of electronic and zero-point Energies=          -2217.895499
 Sum of electronic and thermal Energies=             -2217.869222
 Sum of electronic and thermal Enthalpies=           -2217.868278
 Sum of electronic and thermal Free Energies=        -2217.954388

                     E (Thermal)             CV                S
                      KCal/Mol        Cal/Mol-Kelvin    Cal/Mol-Kelvin
 Total                  202.701             94.633            181.233
 Electronic               0.000              0.000              0.000
 Translational            0.889              2.981             43.939
 Rotational               0.889              2.981             36.597
 Vibrational            200.924             88.671            100.698
 Vibration     1          0.593              1.984              5.969
 Vibration     2          0.594              1.983              5.553
 Vibration     3          0.595              1.980              5.088
 Vibration     4          0.595              1.979              4.952
 Vibration     5          0.596              1.976              4.681
 Vibration     6          0.596              1.974              4.501
 Vibration     7          0.598              1.969              4.206
 Vibration     8          0.599              1.965              3.999
 Vibration     9          0.600              1.961              3.829
 Vibration    10          0.601              1.958              3.729
 Vibration    11          0.604              1.949              3.456
 Vibration    12          0.606              1.943              3.298
 Vibration    13          0.609              1.933              3.104
 Vibration    14          0.610              1.929              3.040
 Vibration    15          0.614              1.916              2.840
 Vibration    16          0.621              1.893              2.567
 Vibration    17          0.627              1.874              2.385
 Vibration    18          0.635              1.847              2.182
 Vibration    19          0.637              1.843              2.154
 Vibration    20          0.659              1.775              1.783
 Vibration    21          0.660              1.771              1.765
 Vibration    22          0.661              1.768              1.754
 Vibration    23          0.673              1.732              1.609
 Vibration    24          0.677              1.720              1.566
 Vibration    25          0.679              1.714              1.545
 Vibration    26          0.703              1.644              1.333
 Vibration    27          0.709              1.626              1.287
 Vibration    28          0.719              1.599              1.220
 Vibration    29          0.741              1.537              1.086
 Vibration    30          0.755              1.499              1.014
 Vibration    31          0.760              1.487              0.991
 Vibration    32          0.808              1.364              0.800
 Vibration    33          0.810              1.358              0.791
 Vibration    34          0.819              1.336              0.763
 Vibration    35          0.856              1.248              0.656
 Vibration    36          0.875              1.206              0.610
 Vibration    37          0.891              1.171              0.574
 Vibration    38          0.907              1.135              0.540
 Vibration    39          0.922              1.104              0.511
 Vibration    40          0.933              1.082              0.492
 Vibration    41          0.941              1.067              0.479
 Vibration    42          0.945              1.058              0.471

 Optimization completed.
    -- Stationary point found.
 Normal termination of Gaussian 16 at Tue Mar 23 01:40:59 2021.
