 Gaussian 16, Revision C.01,
 Gaussian 16:  ES64L-G16RevC.01  3-Jul-2019

 ----------------------------------------------------------------------
 # DSDPBEP86/AUG-cc-PVTZ SCF=Tight INT(grid=ultrafine) Pop=NBO MaxDisk=
 1400000MB
 ----------------------------------------------------------------------

 ------------------------------------
 CP22CA_carboxy.DSDPBEP86_AUG-cc-PVTZ
 ------------------------------------
 Symbolic Z-matrix:
 Charge = -1 Multiplicity = 1

                         Standard orientation:
 ---------------------------------------------------------------------
 Center     Atomic      Atomic             Coordinates (Angstroms)
 Number     Number       Type             X           Y           Z
 ---------------------------------------------------------------------
      1          6           0        0.007481    0.237981   -0.011811
      2          7           0       -1.272430   -0.301418   -0.012850
      3          6           0       -1.565788   -1.626875   -0.019766
      4          8           0       -0.790602   -2.562202   -0.028137
      5          8           0       -2.904118   -1.792324   -0.016752
      6          6           0       -3.360150   -3.137857   -0.020802
      7          6           0       -4.875020   -3.095791   -0.016469
      8          6           0       -5.469004   -4.501261   -0.019260
      9          6           0        1.179801   -0.533621   -0.000685
     10          6           0        2.395196    0.130656    0.001474
     11          6           0        2.530286    1.507694   -0.006277
     12          6           0        1.345778    2.235642   -0.017676
     13          6           0        0.098841    1.641608   -0.021289
     14          1           0       -2.093892    0.375379    0.000325
     15          1           0       -2.970620   -3.660834    0.858323
     16          1           0       -2.975314   -3.654146   -0.905907
     17          1           0       -5.212672   -2.531660   -0.889675
     18          1           0       -5.207755   -2.536898    0.861948
     19          1           0       -5.155646   -5.062652   -0.903858
     20          1           0       -6.560260   -4.470147   -0.016371
     21          1           0       -5.151165   -5.067987    0.860315
     22          1           0        1.122760   -1.610475    0.005405
     23         17           0        1.454214    3.978903   -0.028878
     24          1           0       -0.806530    2.255692   -0.034631
     25         16           0        3.905054   -0.863496    0.015504
     26          1           0        3.492475    1.999066   -0.004363
     27          9           0        3.366300   -1.875020   -1.123503
     28          9           0        4.616060    0.040894   -1.129193
     29          9           0        3.354943   -1.859976    1.162472
     30          9           0        4.604688    0.055897    1.155304
     31          9           0        5.267118   -1.745566    0.028138
     32          8           0       -2.499289    3.358682   -0.079489
     33          8           0       -3.398019    1.307489    0.038908
     34          6           0       -3.456018    2.568286   -0.011132
     35          6           0       -4.865985    3.189216    0.013409
     36          6           0       -6.001419    2.180128    0.121262
     37          1           0       -4.962209    3.795447   -0.893145
     38          1           0       -4.887818    3.900006    0.845531
     39          1           0       -5.974253    1.478667   -0.714233
     40          1           0       -6.978117    2.675141    0.130624
     41          1           0       -5.904233    1.585829    1.031461
 ---------------------------------------------------------------------

 SCF Done:  E(RDSDPBEP86) =  -2213.64115421     A.U. after   14 cycles
 E2(DSDPBEP86) =    -0.2520797464D+01 E(DSDPBEP86) =    -0.22161619516760D+04

 The electronic state is 1-A.
 Alpha  occ. eigenvalues -- -103.47370 -91.07447 -25.62246 -25.62245 -25.62218
 Alpha  occ. eigenvalues --  -25.62217 -25.62081 -19.94414 -19.87799 -19.80982
 Alpha  occ. eigenvalues --  -19.80105 -14.99422 -10.87701 -10.79773 -10.78711
 Alpha  occ. eigenvalues --  -10.78567 -10.78204 -10.77501 -10.75069 -10.73972
 Alpha  occ. eigenvalues --  -10.73808 -10.73384 -10.72627 -10.68812 -10.68673
 Alpha  occ. eigenvalues --  -10.04868  -8.81993  -7.62544  -7.62083  -7.62065
 Alpha  occ. eigenvalues --   -6.61086  -6.61072  -6.60651  -1.50154  -1.40748
 Alpha  occ. eigenvalues --   -1.40690  -1.37633  -1.36463  -1.23559  -1.13086
 Alpha  occ. eigenvalues --   -1.11187  -1.03924  -1.01242  -0.98777  -0.94014
 Alpha  occ. eigenvalues --   -0.89368  -0.88122  -0.83104  -0.81300  -0.81124
 Alpha  occ. eigenvalues --   -0.77102  -0.70673  -0.69455  -0.68160  -0.67954
 Alpha  occ. eigenvalues --   -0.66266  -0.64954  -0.62540  -0.60819  -0.59208
 Alpha  occ. eigenvalues --   -0.57978  -0.57451  -0.56130  -0.53662  -0.53034
 Alpha  occ. eigenvalues --   -0.52828  -0.52515  -0.50651  -0.50387  -0.50257
 Alpha  occ. eigenvalues --   -0.50156  -0.49600  -0.49413  -0.47478  -0.47254
 Alpha  occ. eigenvalues --   -0.47210  -0.46643  -0.46405  -0.45128  -0.44491
 Alpha  occ. eigenvalues --   -0.43923  -0.43420  -0.42601  -0.42454  -0.40491
 Alpha  occ. eigenvalues --   -0.40064  -0.39425  -0.38816  -0.38459  -0.36591
 Alpha  occ. eigenvalues --   -0.35835  -0.35769  -0.35683  -0.34802  -0.33970
 Alpha  occ. eigenvalues --   -0.33079  -0.30812  -0.30757  -0.30611  -0.30105
 Alpha  occ. eigenvalues --   -0.29059  -0.22351  -0.21539  -0.21085  -0.20037
 Alpha  occ. eigenvalues --   -0.18611
 Alpha virt. eigenvalues --    0.07369   0.08870   0.09444   0.09596   0.09770
 Alpha virt. eigenvalues --    0.10707   0.11319   0.11449   0.11622   0.12378
 Alpha virt. eigenvalues --    0.12614   0.12763   0.13098   0.13294   0.13739

 Mulliken charges:
               1
     1  C    0.503455
     2  N   -0.280938
     3  C    0.215836
     4  O   -0.918876
     5  O   -0.242703
     6  C   -0.362619
     7  C   -0.497998
     8  C   -0.995740
     9  C   -0.929397
    10  C    1.179865
    11  C   -0.982923
    12  C    0.428209
    13  C   -1.169093
    14  H    0.694205
    15  H    0.315330
    16  H    0.315511
    17  H    0.228763
    18  H    0.232361
    19  H    0.277779
    20  H    0.282011
    21  H    0.277865
    22  H    0.605586
    23  Cl  -0.430280
    24  H    1.110715
    25  S    2.678920
    26  H    0.512954
    27  F   -0.593193
    28  F   -0.596489
    29  F   -0.593556
    30  F   -0.596832
    31  F   -0.542196
    32  O   -1.016323
    33  O   -0.665013
    34  C    0.489378
    35  C   -0.256964
    36  C   -0.946249
    37  H    0.216082
    38  H    0.214575
    39  H    0.293890
    40  H    0.274170
    41  H    0.269924
 Sum of Mulliken charges =  -1.00000

 Dipole moment (field-independent basis, Debye):
    X=              2.2803    Y=             -5.5016    Z=              0.0812  Tot=              5.9560
 Quadrupole moment (field-independent basis, Debye-Ang):
   XX=           -215.6925   YY=           -201.3927   ZZ=           -163.3359
   XY=             25.7148   XZ=              0.0537   YZ=              0.5372

 Summary of Natural Population Analysis:

                                       Natural Population
                Natural  -----------------------------------------------
    Atom  No    Charge         Core      Valence    Rydberg      Total
 -----------------------------------------------------------------------
      C    1    0.21982      1.99909     3.75291    0.02818     5.78018
      N    2   -0.69369      1.99931     5.66608    0.02829     7.69369
      C    3    1.01289      1.99946     2.95458    0.03307     4.98711
      O    4   -0.73539      1.99975     6.70372    0.03192     8.73539
      O    5   -0.56550      1.99973     6.54068    0.02508     8.56550
      C    6    0.01048      1.99932     3.96457    0.02564     5.98952
      C    7   -0.37598      1.99950     4.35516    0.02132     6.37598
      C    8   -0.54866      1.99953     4.53415    0.01497     6.54866
      C    9   -0.25272      1.99902     4.22667    0.02703     6.25272
      C   10   -0.23916      1.99883     4.19373    0.04660     6.23916
      C   11   -0.20001      1.99897     4.17553    0.02551     6.20001
      C   12   -0.02284      1.99871     3.98697    0.03715     6.02284
      C   13   -0.24946      1.99899     4.22319    0.02728     6.24946
      H   14    0.48776      0.00000     0.50569    0.00655     0.51224
      H   15    0.16052      0.00000     0.83646    0.00302     0.83948
      H   16    0.16059      0.00000     0.83638    0.00302     0.83941
      H   17    0.18780      0.00000     0.80829    0.00391     0.81220
      H   18    0.18829      0.00000     0.80780    0.00390     0.81171
      H   19    0.18027      0.00000     0.81730    0.00243     0.81973
      H   20    0.18712      0.00000     0.81064    0.00225     0.81288
      H   21    0.18032      0.00000     0.81725    0.00243     0.81968
      H   22    0.27183      0.00000     0.72454    0.00363     0.72817
     Cl   23   -0.01949      9.99965     7.00306    0.01678    17.01949
      H   24    0.29867      0.00000     0.69422    0.00710     0.70133
      S   25    2.52889      9.99858     3.25556    0.21698    13.47111
      H   26    0.23207      0.00000     0.76402    0.00391     0.76793
      F   27   -0.50178      1.99996     7.49152    0.01030     9.50178
      F   28   -0.51017      1.99996     7.49980    0.01041     9.51017
      F   29   -0.50193      1.99996     7.49168    0.01029     9.50193
      F   30   -0.51021      1.99996     7.49984    0.01041     9.51021
      F   31   -0.48417      1.99996     7.47176    0.01246     9.48417
      O   32   -0.81773      1.99977     6.79176    0.02620     8.81773
      O   33   -0.85653      1.99974     6.83338    0.02341     8.85653
      C   34    0.88511      1.99963     3.06889    0.04637     5.11489
      C   35   -0.46794      1.99941     4.44586    0.02266     6.46794
      C   36   -0.54648      1.99955     4.53075    0.01618     6.54648
      H   37    0.18503      0.00000     0.81170    0.00327     0.81497
      H   38    0.18512      0.00000     0.81161    0.00327     0.81488
      H   39    0.18954      0.00000     0.80732    0.00314     0.81046
      H   40    0.16003      0.00000     0.83687    0.00310     0.83997
      H   41    0.18837      0.00000     0.80853    0.00310     0.81163
 =======================================================================
   * Total *   -0.99930     65.98632   145.16043    0.85255   211.99930

 Normal termination of Gaussian 16 at Wed Apr 28 19:40:00 2021.
