 Gaussian 16, Revision C.01,
 Gaussian 16:  ES64L-G16RevC.01  3-Jul-2019

 ----------------------------------------------------------------------
 # DSDPBEP86/AUG-cc-PVTZ SCF=Tight INT(grid=ultrafine) MaxDisk=1400000M
 B
 ----------------------------------------------------------------------

 ---------------------------------------
 CP22CA_carboxy_c2.DSDPBEP86_AUG-cc-PVTZ
 ---------------------------------------
 Symbolic Z-matrix:
 Charge = -1 Multiplicity = 1

                         Standard orientation:
 ---------------------------------------------------------------------
 Center     Atomic      Atomic             Coordinates (Angstroms)
 Number     Number       Type             X           Y           Z
 ---------------------------------------------------------------------
      1          6           0        0.164239   -1.054457   -0.012486
      2          7           0        1.483769   -0.623749    0.025496
      3          6           0        2.566644   -1.434945    0.116792
      4          8           0        2.588496   -2.647421    0.198393
      5          8           0        3.691294   -0.688236    0.111824
      6          6           0        4.911920   -1.410952    0.181917
      7          6           0        6.035886   -0.394538    0.162429
      8          6           0        7.400148   -1.074924    0.226369
      9          6           0       -0.825028   -0.054180    0.069965
     10          6           0       -2.145939   -0.438470    0.003303
     11          6           0       -2.570699   -1.757102   -0.127199
     12          6           0       -1.570730   -2.708726   -0.189397
     13          6           0       -0.219694   -2.396033   -0.138350
     14          1           0        1.666044    0.424244   -0.098194
     15          1           0        4.980485   -2.099831   -0.666114
     16          1           0        4.931989   -2.013649    1.095358
     17          1           0        5.905794    0.288446    1.005953
     18          1           0        5.946577    0.209608   -0.744049
     19          1           0        7.504378   -1.669804    1.138055
     20          1           0        8.209432   -0.342309    0.214752
     21          1           0        7.548597   -1.746295   -0.623975
     22          1           0       -0.528623    0.988741    0.216250
     23         17           0       -2.032179   -4.392720   -0.348504
     24          1           0        0.524059   -3.175781   -0.191426
     25         16           0       -3.413777    0.849539    0.099113
     26          1           0       -3.615008   -2.029257   -0.173273
     27          9           0       -2.670088    1.796449   -0.963948
     28          9           0       -4.279001    0.184008   -1.112634
     29          9           0       -2.698114    1.606021    1.314951
     30          9           0       -4.307499   -0.006072    1.159883
     31          9           0       -4.577938    1.975404    0.175858
     32          8           0        0.244623    2.770262    0.691806
     33          8           0        1.985595    1.934484   -0.442110
     34          6           0        1.308414    2.877574    0.058866
     35          6           0        1.855314    4.301293   -0.146960
     36          6           0        3.214279    4.365153   -0.831153
     37          1           0        1.882113    4.779337    0.836939
     38          1           0        1.100847    4.849965   -0.720276
     39          1           0        3.964051    3.821572   -0.252990
     40          1           0        3.552555    5.399256   -0.954067
     41          1           0        3.172992    3.892472   -1.813513
 ---------------------------------------------------------------------

 SCF Done:  E(RDSDPBEP86) =  -2213.64009917     A.U. after   14 cycles
 E2(DSDPBEP86) =    -0.2521254427D+01 E(DSDPBEP86) =    -0.22161613536014D+04

 The electronic state is 1-A.
 Alpha  occ. eigenvalues -- -103.48540 -91.06102 -25.60825 -25.60786 -25.60761
 Alpha  occ. eigenvalues --  -25.60742 -25.60730 -19.94331 -19.87678 -19.81038
 Alpha  occ. eigenvalues --  -19.80095 -14.99128 -10.87557 -10.80197 -10.78574
 Alpha  occ. eigenvalues --  -10.78176 -10.77889 -10.77481 -10.74850 -10.73832
 Alpha  occ. eigenvalues --  -10.73492 -10.73401 -10.73028 -10.68758 -10.68613
 Alpha  occ. eigenvalues --  -10.06039  -8.80632  -7.63707  -7.63256  -7.63247
 Alpha  occ. eigenvalues --   -6.59727  -6.59712  -6.59309  -1.48827  -1.39331
 Alpha  occ. eigenvalues --   -1.39316  -1.36317  -1.35008  -1.23416  -1.12940
 Alpha  occ. eigenvalues --   -1.11283  -1.03742  -1.01236  -0.98931  -0.93848
 Alpha  occ. eigenvalues --   -0.89076  -0.87801  -0.82786  -0.81295  -0.81095
 Alpha  occ. eigenvalues --   -0.77029  -0.70606  -0.68322  -0.66729  -0.66628
 Alpha  occ. eigenvalues --   -0.66291  -0.64799  -0.63199  -0.59679  -0.57821
 Alpha  occ. eigenvalues --   -0.57711  -0.56076  -0.55126  -0.53508  -0.53014
 Alpha  occ. eigenvalues --   -0.52739  -0.51054  -0.50259  -0.49232  -0.49188
 Alpha  occ. eigenvalues --   -0.48762  -0.48687  -0.48410  -0.47377  -0.46833
 Alpha  occ. eigenvalues --   -0.46011  -0.45700  -0.45241  -0.44879  -0.44219
 Alpha  occ. eigenvalues --   -0.43821  -0.43404  -0.42345  -0.42159  -0.40282
 Alpha  occ. eigenvalues --   -0.40216  -0.39583  -0.38825  -0.38399  -0.36492
 Alpha  occ. eigenvalues --   -0.36004  -0.35716  -0.35496  -0.34791  -0.34322
 Alpha  occ. eigenvalues --   -0.33043  -0.32073  -0.30645  -0.30567  -0.29707
 Alpha  occ. eigenvalues --   -0.28960  -0.22816  -0.21567  -0.21087  -0.20072
 Alpha  occ. eigenvalues --   -0.18415
 Alpha virt. eigenvalues --    0.07360   0.08967   0.09385   0.09574   0.09788
 Alpha virt. eigenvalues --    0.10645   0.11301   0.11363   0.11735   0.12249
 Alpha virt. eigenvalues --    0.12582   0.12886   0.13106   0.13499   0.13613

 Mulliken charges:
               1
     1  C    0.776308
     2  N   -0.176813
     3  C    0.245578
     4  O   -0.911332
     5  O   -0.280330
     6  C   -0.349378
     7  C   -0.477339
     8  C   -0.983558
     9  C   -1.841327
    10  C    1.128091
    11  C   -0.995447
    12  C    0.623478
    13  C   -0.936618
    14  H    0.722103
    15  H    0.322403
    16  H    0.335354
    17  H    0.220922
    18  H    0.230272
    19  H    0.275836
    20  H    0.280264
    21  H    0.276954
    22  H    1.055786
    23  Cl  -0.475615
    24  H    0.653136
    25  S    2.788854
    26  H    0.527897
    27  F   -0.599263
    28  F   -0.607812
    29  F   -0.586845
    30  F   -0.605487
    31  F   -0.549246
    32  O   -0.941704
    33  O   -0.786322
    34  C    0.498118
    35  C   -0.175612
    36  C   -0.961939
    37  H    0.225003
    38  H    0.202602
    39  H    0.324461
    40  H    0.262828
    41  H    0.265739
 Sum of Mulliken charges =  -1.00000

 Dipole moment (field-independent basis, Debye):
    X=              1.3689    Y=             -3.5052    Z=             -0.6253  Tot=              3.8146
 Quadrupole moment (field-independent basis, Debye-Ang):
   XX=           -192.3325   YY=           -204.3175   ZZ=           -166.0795
   XY=             -0.3329   XZ=              2.8138   YZ=             -1.7583

 Normal termination of Gaussian 16 at Thu Apr  1 07:48:31 2021.
