 Gaussian 16, Revision C.01,

 ----------------------------------------------------------------------
 # M062X/6-311+G* SCF=Tight INT(grid=ultrafine) OPT=CalcFC IOP(2/17=4)
 EmpiricalDispersion=GD3 SCRF=(SMD,Solvent=h2o) MaxDisk=10000MB
 ----------------------------------------------------------------------

 ----------------------------------------------
 CP22CA_carboxy_c2.M062X_6-311pGd_opt_water_GD3
 ----------------------------------------------
 Symbolic Z-matrix:
 Charge = -1 Multiplicity = 1

 SCF Done:  E(RM062X) =  -2218.22608167     A.U. after   16 cycles
 SCF Done:  E(RM062X) =  -2218.22631339     A.U. after   16 cycles
 SCF Done:  E(RM062X) =  -2218.22860441     A.U. after   15 cycles
 SCF Done:  E(RM062X) =  -2218.22625404     A.U. after   14 cycles
 SCF Done:  E(RM062X) =  -2218.22700467     A.U. after   16 cycles
 SCF Done:  E(RM062X) =  -2218.22863277     A.U. after   12 cycles
 SCF Done:  E(RM062X) =  -2218.22801639     A.U. after   16 cycles
 SCF Done:  E(RM062X) =  -2218.22880805     A.U. after   12 cycles
 SCF Done:  E(RM062X) =  -2218.22885467     A.U. after   12 cycles
 SCF Done:  E(RM062X) =  -2218.22890046     A.U. after   11 cycles
 SCF Done:  E(RM062X) =  -2218.22891434     A.U. after   10 cycles
 SCF Done:  E(RM062X) =  -2218.22891472     A.U. after    8 cycles
 SCF Done:  E(RM062X) =  -2218.22891406     A.U. after    9 cycles
 SCF Done:  E(RM062X) =  -2218.22891493     A.U. after    9 cycles
 SCF Done:  E(RM062X) =  -2218.22891526     A.U. after    8 cycles
 SCF Done:  E(RM062X) =  -2218.22891562     A.U. after   10 cycles
 SCF Done:  E(RM062X) =  -2218.22891590     A.U. after    8 cycles
 SCF Done:  E(RM062X) =  -2218.22891607     A.U. after    8 cycles
 SCF Done:  E(RM062X) =  -2218.22891610     A.U. after    7 cycles
 Optimization completed.
    -- Stationary point found.
 Normal termination of Gaussian 16 at Thu Apr  1 02:02:04 2021.
 Gaussian 16:  ES64L-G16RevC.01  3-Jul-2019

 ----------------------------------------------------------------------
 # M062X/6-311+G* SCF=Tight INT(grid=ultrafine) EmpiricalDispersion=GD3
  SCRF=(SMD,Solvent=h2o) Freq=Noraman MaxDisk=10000MB geom=check guess=
 read IOP(2/17=4)
 ----------------------------------------------------------------------

 ----------------------------------------------
 CP22CA_carboxy_c2.M062X_6-311pGd_opt_water_GD3
 ----------------------------------------------
 Structure from the checkpoint file:  "CP22CA_carboxy_c2.M062X_6-311pGd_opt_water_GD3.chk"
 Charge = -1 Multiplicity = 1

                         Standard orientation:
 ---------------------------------------------------------------------
 Center     Atomic      Atomic             Coordinates (Angstroms)
 Number     Number       Type             X           Y           Z
 ---------------------------------------------------------------------
      1          6           0        0.108359   -1.132274   -0.073867
      2          7           0        1.440651   -0.735514   -0.167293
      3          6           0        2.541673   -1.522061   -0.032098
      4          8           0        2.555914   -2.721479    0.173664
      5          8           0        3.645625   -0.773238   -0.157260
      6          6           0        4.905312   -1.461957   -0.024993
      7          6           0        6.002383   -0.432052   -0.174555
      8          6           0        7.373063   -1.087868   -0.049907
      9          6           0       -0.841061   -0.100737   -0.086506
     10          6           0       -2.176052   -0.434722   -0.009143
     11          6           0       -2.644210   -1.738069    0.085390
     12          6           0       -1.675297   -2.727826    0.093564
     13          6           0       -0.315125   -2.460721    0.014036
     14          1           0        1.614793    0.271830   -0.306526
     15          1           0        4.967876   -2.229796   -0.799214
     16          1           0        4.939965   -1.944281    0.954164
     17          1           0        5.877676    0.336920    0.592910
     18          1           0        5.902771    0.057929   -1.146992
     19          1           0        7.492575   -1.569291    0.923995
     20          1           0        8.169252   -0.349454   -0.157514
     21          1           0        7.516700   -1.849563   -0.820457
     22          1           0       -0.511734    0.932236   -0.160568
     23         17           0       -2.188301   -4.391549    0.203487
     24          1           0        0.395061   -3.273012    0.017062
     25         16           0       -3.384992    0.908766   -0.027733
     26          1           0       -3.695936   -1.981122    0.148919
     27          9           0       -2.659604    1.666206   -1.257117
     28          9           0       -4.348096    0.138923   -1.075928
     29          9           0       -2.539884    1.805326    1.018626
     30          9           0       -4.227899    0.276940    1.200667
     31          9           0       -4.473158    2.106632   -0.043045
     32          8           0        0.106856    3.057597   -0.404174
     33          8           0        2.058877    1.982189   -0.477621
     34          6           0        1.345337    2.985549   -0.195596
     35          6           0        2.014583    4.200479    0.441988
     36          6           0        3.514245    4.074630    0.660554
     37          1           0        1.498342    4.385224    1.389235
     38          1           0        1.784544    5.061563   -0.192793
     39          1           0        3.750707    3.234521    1.316835
     40          1           0        3.912887    4.981616    1.120443
     41          1           0        4.041301    3.918318   -0.282907
 ---------------------------------------------------------------------

 SCF Done:  E(RM062X) =  -2218.22891610     A.U. after    1 cycles

 The electronic state is 1-A.
 Alpha  occ. eigenvalues -- -102.68822 -90.28780 -25.29286 -25.29284 -25.29273
 Alpha  occ. eigenvalues --  -25.29270 -25.29201 -19.67206 -19.61753 -19.57717
 Alpha  occ. eigenvalues --  -19.57171 -14.78774 -10.71184 -10.63598 -10.62833
 Alpha  occ. eigenvalues --  -10.62176 -10.61524 -10.58798 -10.57821 -10.57295
 Alpha  occ. eigenvalues --  -10.56859 -10.52913 -10.52330 -10.51792 -10.51290
 Alpha  occ. eigenvalues --   -9.83091  -8.61107  -7.55603  -7.54931  -7.54915
 Alpha  occ. eigenvalues --   -6.53528  -6.53516  -6.53065  -1.51043  -1.41019
 Alpha  occ. eigenvalues --   -1.40969  -1.37990  -1.36567  -1.25229  -1.16333
 Alpha  occ. eigenvalues --   -1.15328  -1.07429  -1.06405  -1.01951  -0.97771
 Alpha  occ. eigenvalues --   -0.93582  -0.89546  -0.87028  -0.85671  -0.85531
 Alpha  occ. eigenvalues --   -0.79719  -0.76819  -0.74850  -0.74534  -0.72905
 Alpha  occ. eigenvalues --   -0.72020  -0.70190  -0.67478  -0.66002  -0.65007
 Alpha  occ. eigenvalues --   -0.64817  -0.63185  -0.62257  -0.60998  -0.59900
 Alpha  occ. eigenvalues --   -0.59168  -0.58950  -0.58646  -0.56589  -0.56329
 Alpha  occ. eigenvalues --   -0.56130  -0.56095  -0.55986  -0.54551  -0.53625
 Alpha  occ. eigenvalues --   -0.53246  -0.53171  -0.53021  -0.52709  -0.52440
 Alpha  occ. eigenvalues --   -0.51982  -0.50954  -0.50311  -0.49720  -0.49551
 Alpha  occ. eigenvalues --   -0.47138  -0.46762  -0.46073  -0.45137  -0.44727
 Alpha  occ. eigenvalues --   -0.44031  -0.43216  -0.42571  -0.41430  -0.40054
 Alpha  occ. eigenvalues --   -0.39926  -0.39484  -0.39285  -0.39213  -0.37905
 Alpha  occ. eigenvalues --   -0.37752  -0.33676  -0.32888  -0.32815  -0.32019
 Alpha  occ. eigenvalues --   -0.29330
 Alpha virt. eigenvalues --   -0.02716  -0.02019  -0.00391   0.01223   0.02074
 Alpha virt. eigenvalues --    0.02829   0.03095   0.03200   0.03868   0.04066
 Alpha virt. eigenvalues --    0.04351   0.04512   0.04793   0.05345   0.05538

 Mulliken charges:
               1
     1  C   -0.127194
     2  N   -0.507407
     3  C    0.135445
     4  O   -0.426464
     5  O   -0.106631
     6  C   -0.405559
     7  C   -0.126132
     8  C   -1.132040
     9  C   -0.296807
    10  C   -1.291294
    11  C   -0.542289
    12  C    0.590870
    13  C   -0.518772
    14  H    0.551523
    15  H    0.283868
    16  H    0.285770
    17  H    0.270795
    18  H    0.276539
    19  H    0.272942
    20  H    0.284175
    21  H    0.272762
    22  H    0.370368
    23  Cl   0.414482
    24  H    0.338695
    25  S    0.516757
    26  H    0.364376
    27  F    0.057529
    28  F    0.047399
    29  F    0.059464
    30  F    0.046651
    31  F   -0.002915
    32  O   -0.604617
    33  O   -0.641391
    34  C    0.220305
    35  C   -0.340939
    36  C   -0.980717
    37  H    0.289714
    38  H    0.287233
    39  H    0.270194
    40  H    0.272095
    41  H    0.271216
 Sum of Mulliken charges =  -1.00000

 Dipole moment (field-independent basis, Debye):
    X=              2.3751    Y=             -7.4465    Z=              2.3339  Tot=              8.1571
 Quadrupole moment (field-independent basis, Debye-Ang):
   XX=           -171.4761   YY=           -198.9745   ZZ=           -165.7722
   XY=              7.5262   XZ=              1.6949   YZ=              8.3213

  Exact polarizability:     351.672      -1.658     324.283      -1.447      -3.391     204.419
 Approx polarizability:     284.261       1.288     278.499      -2.502      -4.370     185.485

                      1                      2                      3
                      A                      A                      A
 Frequencies --      9.6853                14.0059                28.6954
 Red. masses --      6.8060                 2.5989                 5.9806
 Frc consts  --      0.0004                 0.0003                 0.0029
 IR Inten    --      0.6752                 5.7779                 4.3097

                      4                      5                      6
                      A                      A                      A
 Frequencies --     35.5085                39.8550                48.8284
 Red. masses --      4.2325                 2.8389                 5.2810
 Frc consts  --      0.0031                 0.0027                 0.0074
 IR Inten    --      0.6059                 0.0080                 8.0688

                      7                      8                      9
                      A                      A                      A
 Frequencies --     51.1626                60.2677                65.5749
 Red. masses --      3.4083                10.2710                 6.9809
 Frc consts  --      0.0053                 0.0220                 0.0177
 IR Inten    --      5.5014                 3.5002                 9.6237

                     10                     11                     12
                      A                      A                      A
 Frequencies --     75.3497                90.7310                96.2332
 Red. masses --      5.7509                 4.0626                 4.4124
 Frc consts  --      0.0192                 0.0197                 0.0241
 IR Inten    --      4.4281                10.1196                10.0126

                     13                     14                     15
                      A                      A                      A
 Frequencies --    103.4823               118.6569               127.3362
 Red. masses --      7.0983                10.0263                 7.9341
 Frc consts  --      0.0448                 0.0832                 0.0758
 IR Inten    --      1.7125                11.7392                19.2208

                     16                     17                     18
                      A                      A                      A
 Frequencies --    145.2594               163.9301               195.1731
 Red. masses --      7.5121                 3.0548                 8.3017
 Frc consts  --      0.0934                 0.0484                 0.1863
 IR Inten    --      2.6862                 7.0024                 3.8535

                     19                     20                     21
                      A                      A                      A
 Frequencies --    197.3346               223.2394               240.6127
 Red. masses --      6.2781                10.2173                 1.1530
 Frc consts  --      0.1440                 0.3000                 0.0393
 IR Inten    --      1.7682                 4.0061                 0.1591

                     22                     23                     24
                      A                      A                      A
 Frequencies --    250.5817               252.6589               272.2158
 Red. masses --      1.1039                 4.2645                 5.7686
 Frc consts  --      0.0408                 0.1604                 0.2519
 IR Inten    --      2.5818                 0.7392                 0.0723

                     25                     26                     27
                      A                      A                      A
 Frequencies --    273.6484               309.6643               332.4042
 Red. masses --      7.8840                 3.8923                 6.1984
 Frc consts  --      0.3478                 0.2199                 0.4035
 IR Inten    --      0.0495                10.5440                 0.8932

                     28                     29                     30
                      A                      A                      A
 Frequencies --    338.6562               363.7081               384.4755
 Red. masses --     18.6766                 6.2416                13.6263
 Frc consts  --      1.2620                 0.4865                 1.1868
 IR Inten    --      0.0123                54.1614                 5.2216

                     31                     32                     33
                      A                      A                      A
 Frequencies --    389.9284               431.9272               451.5337
 Red. masses --     11.9151                 8.1767                18.7180
 Frc consts  --      1.0674                 0.8988                 2.2485
 IR Inten    --      4.0927                13.1180                 0.0267

                     34                     35                     36
                      A                      A                      A
 Frequencies --    472.4103               492.7348               514.5711
 Red. masses --      5.1123                 7.0526                 5.5858
 Frc consts  --      0.6722                 1.0088                 0.8714
 IR Inten    --      0.3908                 9.0498                20.7856

                     37                     38                     39
                      A                      A                      A
 Frequencies --    534.2967               548.8353               568.8078
 Red. masses --     15.2221                13.5227                 5.9116
 Frc consts  --      2.5603                 2.3999                 1.1269
 IR Inten    --     32.1488                26.7517                 1.1896

                     40                     41                     42
                      A                      A                      A
 Frequencies --    575.1306               580.5832               587.1927
 Red. masses --     18.0572                 1.8975                18.8449
 Frc consts  --      3.5191                 0.3768                 3.8283
 IR Inten    --    150.2397                 8.3255                 0.1547

                     43                     44                     45
                      A                      A                      A
 Frequencies --    610.5420               631.1457               652.6924
 Red. masses --      5.6367                14.6163                 4.9932
 Frc consts  --      1.2380                 3.4304                 1.2533
 IR Inten    --      5.4901               108.8658                24.1878

                     46                     47                     48
                      A                      A                      A
 Frequencies --    659.7123               686.0742               737.1280
 Red. masses --      7.1982                 2.6879                13.2984
 Frc consts  --      1.8458                 0.7454                 4.2573
 IR Inten    --     42.6436                37.7418               372.0404

                     49                     50                     51
                      A                      A                      A
 Frequencies --    767.0943               779.3329               789.6942
 Red. masses --      1.1261                 8.4834                 6.7329
 Frc consts  --      0.3904                 3.0357                 2.4738
 IR Inten    --     22.0433                78.9547                83.7369

                     52                     53                     54
                      A                      A                      A
 Frequencies --    811.0818               820.1930               821.2710
 Red. masses --     22.8685                 1.7789                 3.1941
 Frc consts  --      8.8638                 0.7051                 1.2693
 IR Inten    --    602.0811               216.5237               433.6088

                     55                     56                     57
                      A                      A                      A
 Frequencies --    824.6005               860.5620               869.3116
 Red. masses --      1.3716                14.0423                 1.4270
 Frc consts  --      0.5495                 6.1271                 0.6354
 IR Inten    --    158.5203               347.7149                50.8777

                     58                     59                     60
                      A                      A                      A
 Frequencies --    884.9212               908.7726               909.7358
 Red. masses --      3.9502                 1.5048                 1.1510
 Frc consts  --      1.8226                 0.7322                 0.5612
 IR Inten    --     38.4988                33.4364                 6.9302

                     61                     62                     63
                      A                      A                      A
 Frequencies --    926.9499               935.8117               963.8526
 Red. masses --      1.7600                 1.3198                 4.9647
 Frc consts  --      0.8910                 0.6810                 2.7174
 IR Inten    --      3.0980                21.3486                82.2874

                     64                     65                     66
                      A                      A                      A
 Frequencies --   1008.2564              1014.4431              1024.4575
 Red. masses --      5.7312                 7.4231                 1.6610
 Frc consts  --      3.4327                 4.5008                 1.0271
 IR Inten    --     14.8712                 5.7347                20.5462

                     67                     68                     69
                      A                      A                      A
 Frequencies --   1075.9988              1109.4174              1110.4606
 Red. masses --      2.4036                 1.8012                 2.3286
 Frc consts  --      1.6396                 1.3062                 1.6918
 IR Inten    --      2.6206                 2.2833                23.2572

                     70                     71                     72
                      A                      A                      A
 Frequencies --   1124.8914              1156.3091              1163.8854
 Red. masses --      6.1558                 1.6399                 2.3031
 Frc consts  --      4.5894                 1.2919                 1.8381
 IR Inten    --    391.9955                29.3251                18.1499

                     73                     74                     75
                      A                      A                      A
 Frequencies --   1168.7752              1190.9105              1267.5374
 Red. masses --      1.8098                 1.6489                 3.0547
 Frc consts  --      1.4566                 1.3779                 2.8916
 IR Inten    --     46.9232                 1.4157              1135.5736

                     76                     77                     78
                      A                      A                      A
 Frequencies --   1288.7087              1294.1944              1295.9653
 Red. masses --      1.1850                 3.4141                 1.1741
 Frc consts  --      1.1595                 3.3692                 1.1618
 IR Inten    --      2.8828               153.3100                 1.8645

                     79                     80                     81
                      A                      A                      A
 Frequencies --   1319.5495              1336.2370              1336.5290
 Red. masses --      1.8128                 1.0683                 1.7209
 Frc consts  --      1.8598                 1.1238                 1.8111
 IR Inten    --    187.3038                 1.4769                85.0673

                     82                     83                     84
                      A                      A                      A
 Frequencies --   1347.0985              1367.6213              1416.2897
 Red. masses --      1.4528                 2.4738                 1.3710
 Frc consts  --      1.5533                 2.7262                 1.6202
 IR Inten    --     43.3080               151.0975                69.7404

                     85                     86                     87
                      A                      A                      A
 Frequencies --   1419.5601              1441.5965              1444.3701
 Red. masses --      1.2737                 2.0020                 1.5175
 Frc consts  --      1.5123                 2.4514                 1.8653
 IR Inten    --      9.4064               365.5033                 0.9471

                     88                     89                     90
                      A                      A                      A
 Frequencies --   1463.0140              1472.8867              1484.8375
 Red. masses --      1.6487                 2.9694                 1.0637
 Frc consts  --      2.0791                 3.7953                 1.3817
 IR Inten    --    114.2914               107.3774                 1.0172

                     91                     92                     93
                      A                      A                      A
 Frequencies --   1500.6328              1501.9180              1504.6228
 Red. masses --      1.0376                 1.0374                 1.0876
 Frc consts  --      1.3767                 1.3787                 1.4507
 IR Inten    --     12.2020                13.7178                80.0108

                     94                     95                     96
                      A                      A                      A
 Frequencies --   1508.5331              1516.7498              1522.2867
 Red. masses --      1.0931                 3.3820                 1.0981
 Frc consts  --      1.4656                 4.5840                 1.4993
 IR Inten    --      3.2318               183.5402                30.7885

                     97                     98                     99
                      A                      A                      A
 Frequencies --   1542.9140              1610.7219              1661.5228
 Red. masses --      8.2184                 2.6323                 4.5967
 Frc consts  --     11.5271                 4.0237                 7.4766
 IR Inten    --   1331.4155               696.3106               668.1883

                    100                    101                    102
                      A                      A                      A
 Frequencies --   1678.8158              1736.9980              3069.8442
 Red. masses --      3.1211                 8.1560                 1.0370
 Frc consts  --      5.1828                14.4985                 5.7581
 IR Inten    --     23.0533               825.6384                31.4990

                    103                    104                    105
                      A                      A                      A
 Frequencies --   3073.5314              3077.6145              3079.0867
 Red. masses --      1.0369                 1.0620                 1.0604
 Frc consts  --      5.7711                 5.9267                 5.9230
 IR Inten    --     45.7478                19.7503                23.9553

                    106                    107                    108
                      A                      A                      A
 Frequencies --   3095.2472              3110.3250              3114.5538
 Red. masses --      1.0569                 1.1013                 1.1041
 Frc consts  --      5.9662                 6.2775                 6.3103
 IR Inten    --     57.3770                 7.9668                 1.2201

                    109                    110                    111
                      A                      A                      A
 Frequencies --   3137.5332              3141.5813              3146.7050
 Red. masses --      1.1049                 1.1025                 1.1037
 Frc consts  --      6.4081                 6.4112                 6.4389
 IR Inten    --     29.9228                55.9953                56.0928

                    112                    113                    114
                      A                      A                      A
 Frequencies --   3148.1813              3152.4622              3179.4075
 Red. masses --      1.1024                 1.1099                 1.0964
 Frc consts  --      6.4373                 6.4988                 6.5301
 IR Inten    --     41.0831                90.0854                63.5412

                    115                    116                    117
                      A                      A                      A
 Frequencies --   3220.1308              3264.4229              3287.8688
 Red. masses --      1.0887                 1.0941                 1.0929
 Frc consts  --      6.6515                 6.8694                 6.9606
 IR Inten    --   1702.7824                18.4952                23.0876

 - Thermochemistry -
 -------------------
 Temperature   298.150 Kelvin.  Pressure   1.00000 Atm.
 Atom     1 has atomic number  6 and mass  12.00000

 Molecular mass:   412.04087 amu.
 Principal axes and moments of inertia in atomic units:
                           1         2         3
     Eigenvalues --  8236.98526********************
           X            0.99989   0.01482   0.00148
           Y           -0.01483   0.99987   0.00704
           Z           -0.00137  -0.00706   0.99997
 This molecule is an asymmetric top.
 Rotational symmetry number  1.
 Warning -- assumption of classical behavior for rotation
           may cause significant error
 Rotational temperatures (Kelvin)      0.01052     0.00525     0.00364
 Rotational constants (GHZ):           0.21910     0.10941     0.07575
 Zero-point vibrational energy     775391.8 (Joules/Mol)
                                  185.32308 (Kcal/Mol)
 Warning -- explicit consideration of  43 degrees of freedom as
           vibrations may cause significant error
 Vibrational temperatures:     13.93    20.15    41.29    51.09    57.34
          (Kelvin)             70.25    73.61    86.71    94.35   108.41
                              130.54   138.46   148.89   170.72   183.21
                              209.00   235.86   280.81   283.92   321.19
                              346.19   360.53   363.52   391.66   393.72
                              445.54   478.26   487.25   523.29   553.17
                              561.02   621.45   649.66   679.69   708.94
                              740.35   768.73   789.65   818.39   827.48
                              835.33   844.84   878.43   908.08   939.08
                              949.18   987.11  1060.56  1103.68  1121.29
                             1136.19  1166.97  1180.07  1181.63  1186.42
                             1238.16  1250.75  1273.20  1307.52  1308.91
                             1333.67  1346.42  1386.77  1450.66  1459.56
                             1473.97  1548.12  1596.20  1597.71  1618.47
                             1663.67  1674.57  1681.61  1713.45  1823.70
                             1854.16  1862.06  1864.61  1898.54  1922.55
                             1922.97  1938.17  1967.70  2037.73  2042.43
                             2074.14  2078.13  2104.95  2119.16  2136.35
                             2159.08  2160.92  2164.82  2170.44  2182.26
                             2190.23  2219.91  2317.47  2390.56  2415.44
                             2499.15  4416.82  4422.13  4428.00  4430.12
                             4453.37  4475.06  4481.15  4514.21  4520.03
                             4527.41  4529.53  4535.69  4574.46  4633.05
                             4696.78  4730.51

 Zero-point correction=                           0.295331 (Hartree/Particle)
 Thermal correction to Energy=                    0.322253
 Thermal correction to Enthalpy=                  0.323197
 Thermal correction to Gibbs Free Energy=         0.232481
 Sum of electronic and zero-point Energies=          -2217.933585
 Sum of electronic and thermal Energies=             -2217.906663
 Sum of electronic and thermal Enthalpies=           -2217.905719
 Sum of electronic and thermal Free Energies=        -2217.996435

                     E (Thermal)             CV                S
                      KCal/Mol        Cal/Mol-Kelvin    Cal/Mol-Kelvin
 Total                  202.217             95.626            190.927
 Electronic               0.000              0.000              0.000
 Translational            0.889              2.981             43.939
 Rotational               0.889              2.981             36.424
 Vibrational            200.439             89.664            110.564
 Vibration     1          0.593              1.987              8.075
 Vibration     2          0.593              1.986              7.342
 Vibration     3          0.593              1.984              5.918
 Vibration     4          0.594              1.982              5.495
 Vibration     5          0.594              1.981              5.266
 Vibration     6          0.595              1.978              4.864
 Vibration     7          0.595              1.977              4.772
 Vibration     8          0.597              1.973              4.448
 Vibration     9          0.597              1.971              4.282
 Vibration    10          0.599              1.965              4.008
 Vibration    11          0.602              1.956              3.644
 Vibration    12          0.603              1.952              3.529
 Vibration    13          0.605              1.946              3.388
 Vibration    14          0.609              1.934              3.122
 Vibration    15          0.611              1.926              2.986
 Vibration    16          0.617              1.908              2.733
 Vibration    17          0.623              1.887              2.504
 Vibration    18          0.636              1.847              2.178
 Vibration    19          0.637              1.844              2.158
 Vibration    20          0.649              1.806              1.933
 Vibration    21          0.658              1.778              1.798
 Vibration    22          0.663              1.762              1.726
 Vibration    23          0.664              1.758              1.712
 Vibration    24          0.675              1.725              1.582
 Vibration    25          0.676              1.722              1.573
 Vibration    26          0.699              1.655              1.364
 Vibration    27          0.714              1.611              1.248
 Vibration    28          0.719              1.598              1.218
 Vibration    29          0.737              1.547              1.106
 Vibration    30          0.753              1.503              1.022
 Vibration    31          0.758              1.492              1.000
 Vibration    32          0.793              1.401              0.852
 Vibration    33          0.810              1.357              0.791
 Vibration    34          0.829              1.311              0.731
 Vibration    35          0.848              1.266              0.677
 Vibration    36          0.870              1.218              0.623
 Vibration    37          0.889              1.174              0.578
 Vibration    38          0.904              1.142              0.547
 Vibration    39          0.925              1.099              0.507
 Vibration    40          0.931              1.085              0.494
 Vibration    41          0.937              1.073              0.484
 Vibration    42          0.944              1.059              0.472
 Vibration    43          0.970              1.010              0.432

                           ! Non-Optimized Parameters !
 Normal termination of Gaussian 16 at Thu Apr  1 13:18:29 2021.
