 Gaussian 16, Revision C.01,

 ----------------------------------------------------------------------
 # M062X/6-311+G* SCF=Tight INT(grid=ultrafine) OPT=CalcFC IOP(2/17=4)
 EmpiricalDispersion=GD3 SCRF=(SMD,Solvent=n-Pentadecane) MaxDisk=10000
 MB
 ----------------------------------------------------------------------

 ----------------------------------------------------
 CP22CA_carboxy_c2.M062X_6-311pGd_opt_Pentadecane_GD3
 ----------------------------------------------------
 Symbolic Z-matrix:
 Charge = -1 Multiplicity = 1

 SCF Done:  E(RM062X) =  -2218.09210372     A.U. after   18 cycles
 SCF Done:  E(RM062X) =  -2218.14522266     A.U. after   17 cycles
 SCF Done:  E(RM062X) =  -2218.17071994     A.U. after   16 cycles
 SCF Done:  E(RM062X) =  -2218.17477594     A.U. after   17 cycles
 SCF Done:  E(RM062X) =  -2218.18415718     A.U. after   15 cycles
 SCF Done:  E(RM062X) =  -2218.17185337     A.U. after   17 cycles
 SCF Done:  E(RM062X) =  -2218.18769872     A.U. after   14 cycles
 SCF Done:  E(RM062X) =  -2218.18459300     A.U. after   17 cycles
 SCF Done:  E(RM062X) =  -2218.18134356     A.U. after   15 cycles
 SCF Done:  E(RM062X) =  -2218.17674496     A.U. after   16 cycles
 SCF Done:  E(RM062X) =  -2218.19091682     A.U. after   13 cycles
 SCF Done:  E(RM062X) =  -2218.19169897     A.U. after   11 cycles
 SCF Done:  E(RM062X) =  -2218.19154856     A.U. after   14 cycles
 SCF Done:  E(RM062X) =  -2218.19169842     A.U. after   13 cycles
 SCF Done:  E(RM062X) =  -2218.19169911     A.U. after   11 cycles
 SCF Done:  E(RM062X) =  -2218.19170023     A.U. after   10 cycles
 SCF Done:  E(RM062X) =  -2218.19170030     A.U. after    9 cycles
 SCF Done:  E(RM062X) =  -2218.19170009     A.U. after    9 cycles
 SCF Done:  E(RM062X) =  -2218.19170029     A.U. after    8 cycles
 Optimization completed.
    -- Stationary point found.
 Normal termination of Gaussian 16 at Mon Mar 22 14:20:06 2021.
 Gaussian 16:  ES64L-G16RevC.01  3-Jul-2019

 ----------------------------------------------------------------------
 # M062X/6-311+G* SCF=Tight INT(grid=ultrafine) EmpiricalDispersion=GD3
  SCRF=(SMD,Solvent=n-Pentadecane) Freq=Noraman MaxDisk=10000MB geom=ch
 eck guess=read IOP(2/17=4)
 ----------------------------------------------------------------------

 ----------------------------------------------------
 CP22CA_carboxy_c2.M062X_6-311pGd_opt_Pentadecane_GD3
 ----------------------------------------------------
 Structure from the checkpoint file:  "CP22CA_carboxy_c2.M062X_6-311pGd_opt_Pentadecane_GD3.chk"
 Charge = -1 Multiplicity = 1

                         Standard orientation:
 ---------------------------------------------------------------------
 Center     Atomic      Atomic             Coordinates (Angstroms)
 Number     Number       Type             X           Y           Z
 ---------------------------------------------------------------------
      1          6           0       -0.181659   -1.074900   -0.015933
      2          7           0       -1.500952   -0.639308   -0.045596
      3          6           0       -2.597670   -1.443562   -0.070548
      4          8           0       -2.620408   -2.657820   -0.094020
      5          8           0       -3.711479   -0.691634   -0.067808
      6          6           0       -4.945846   -1.407756   -0.085385
      7          6           0       -6.063132   -0.385941   -0.083036
      8          6           0       -7.427967   -1.066253   -0.096248
      9          6           0        0.811296   -0.076983   -0.059950
     10          6           0        2.131064   -0.470231   -0.012708
     11          6           0        2.552817   -1.793043    0.066216
     12          6           0        1.548105   -2.741765    0.099230
     13          6           0        0.198490   -2.420929    0.063042
     14          1           0       -1.665987    0.403721   -0.017370
     15          1           0       -4.998674   -2.060281    0.791133
     16          1           0       -4.985143   -2.042111   -0.975677
     17          1           0       -5.949969    0.263812   -0.954957
     18          1           0       -5.959345    0.249514    0.800451
     19          1           0       -7.551760   -1.692785   -0.984031
     20          1           0       -8.234745   -0.330726   -0.096050
     21          1           0       -7.562589   -1.704909    0.781257
     22          1           0        0.531317    0.978584   -0.136254
     23         17           0        1.999336   -4.430949    0.196684
     24          1           0       -0.546090   -3.200581    0.095078
     25         16           0        3.401152    0.818897   -0.046405
     26          1           0        3.596188   -2.072586    0.100638
     27          9           0        2.630618    1.740431    1.017688
     28          9           0        4.236732    0.126562    1.169058
     29          9           0        2.716148    1.604304   -1.265303
     30          9           0        4.321327   -0.008686   -1.106045
     31          9           0        4.564021    1.947887   -0.069817
     32          8           0        0.034853    2.911701   -0.322955
     33          8           0       -1.968281    2.008520    0.107421
     34          6           0       -1.179414    2.980482   -0.057178
     35          6           0       -1.777507    4.390991    0.077751
     36          6           0       -3.240543    4.429611    0.494061
     37          1           0       -1.634144    4.888999   -0.886985
     38          1           0       -1.150469    4.939471    0.787381
     39          1           0       -3.865797    3.901639   -0.227956
     40          1           0       -3.603548    5.459131    0.575361
     41          1           0       -3.384994    3.939101    1.458763
 ---------------------------------------------------------------------

 SCF Done:  E(RM062X) =  -2218.19170029     A.U. after    2 cycles

 The electronic state is 1-A.
 Alpha  occ. eigenvalues -- -102.64328 -90.22978 -25.23459 -25.23452 -25.23448
 Alpha  occ. eigenvalues --  -25.23440 -25.23434 -19.61467 -19.55634 -19.49121
 Alpha  occ. eigenvalues --  -19.48242 -14.72191 -10.64909 -10.57769 -10.56548
 Alpha  occ. eigenvalues --  -10.55962 -10.55008 -10.54878 -10.52719 -10.51421
 Alpha  occ. eigenvalues --  -10.51181 -10.49627 -10.49388 -10.46042 -10.45947
 Alpha  occ. eigenvalues --   -9.78599  -8.55304  -7.51104  -7.50442  -7.50434
 Alpha  occ. eigenvalues --   -6.47722  -6.47712  -6.47267  -1.45219  -1.35182
 Alpha  occ. eigenvalues --   -1.35162  -1.32185  -1.30720  -1.19573  -1.09499
 Alpha  occ. eigenvalues --   -1.07861  -1.01126  -0.98123  -0.96611  -0.92393
 Alpha  occ. eigenvalues --   -0.88003  -0.85592  -0.81779  -0.80242  -0.79324
 Alpha  occ. eigenvalues --   -0.75537  -0.71270  -0.69161  -0.68666  -0.67707
 Alpha  occ. eigenvalues --   -0.65750  -0.64531  -0.63669  -0.60529  -0.59228
 Alpha  occ. eigenvalues --   -0.59086  -0.57404  -0.56450  -0.55398  -0.54161
 Alpha  occ. eigenvalues --   -0.54092  -0.53317  -0.51484  -0.50806  -0.50497
 Alpha  occ. eigenvalues --   -0.50337  -0.50163  -0.50142  -0.48923  -0.48367
 Alpha  occ. eigenvalues --   -0.47746  -0.47529  -0.46676  -0.46563  -0.46112
 Alpha  occ. eigenvalues --   -0.45989  -0.45041  -0.44743  -0.44496  -0.42622
 Alpha  occ. eigenvalues --   -0.42071  -0.41670  -0.40393  -0.39492  -0.39081
 Alpha  occ. eigenvalues --   -0.38726  -0.38204  -0.37872  -0.36432  -0.36297
 Alpha  occ. eigenvalues --   -0.35309  -0.34789  -0.33763  -0.33213  -0.32750
 Alpha  occ. eigenvalues --   -0.31512  -0.27699  -0.24584  -0.24320  -0.23423
 Alpha  occ. eigenvalues --   -0.23032
 Alpha virt. eigenvalues --    0.02762   0.03428   0.04963   0.04979   0.05407
 Alpha virt. eigenvalues --    0.06377   0.06918   0.07321   0.07713   0.08055
 Alpha virt. eigenvalues --    0.08334   0.08462   0.08830   0.09471   0.09662

 Mulliken charges:
               1
     1  C   -0.106912
     2  N   -0.608866
     3  C    0.011257
     4  O   -0.341111
     5  O   -0.022568
     6  C   -0.321689
     7  C   -0.147378
     8  C   -1.107011
     9  C   -0.232936
    10  C   -1.337399
    11  C   -0.582996
    12  C    0.634464
    13  C   -0.605625
    14  H    0.590696
    15  H    0.258638
    16  H    0.253502
    17  H    0.269696
    18  H    0.270036
    19  H    0.258602
    20  H    0.271789
    21  H    0.258339
    22  H    0.434714
    23  Cl   0.396267
    24  H    0.324100
    25  S    0.550167
    26  H    0.324434
    27  F    0.097117
    28  F    0.022849
    29  F    0.103006
    30  F    0.016711
    31  F   -0.004218
    32  O   -0.458463
    33  O   -0.474206
    34  C   -0.013795
    35  C   -0.269232
    36  C   -0.972809
    37  H    0.254505
    38  H    0.252392
    39  H    0.256167
    40  H    0.240017
    41  H    0.257748
 Sum of Mulliken charges =  -1.00000

 Dipole moment (field-independent basis, Debye):
    X=             -2.6766    Y=             -5.0366    Z=              0.4571  Tot=              5.7219
 Quadrupole moment (field-independent basis, Debye-Ang):
   XX=           -186.9720   YY=           -203.6239   ZZ=           -165.6363
   XY=             -2.2851   XZ=              1.4861   YZ=              1.1788

  Exact polarizability:     306.887      -7.076     275.279      -1.216      -3.040     154.385
 Approx polarizability:     289.436      -2.382     281.951      -1.148      -4.399     186.263

                      1                      2                      3
                      A                      A                      A
 Frequencies --     15.5794                29.2980                32.1139
 Red. masses --      4.9522                 5.5806                 2.6036
 Frc consts  --      0.0007                 0.0028                 0.0016
 IR Inten    --      0.4864                 1.0171                 0.1525

                      4                      5                      6
                      A                      A                      A
 Frequencies --     41.9787                51.3390                57.2252
 Red. masses --      4.3381                 4.4445                 5.6329
 Frc consts  --      0.0045                 0.0069                 0.0109
 IR Inten    --      0.2420                 1.3330                 0.3759

                      7                      8                      9
                      A                      A                      A
 Frequencies --     60.1676                74.8465                78.0260
 Red. masses --      2.8308                 6.4579                 3.1994
 Frc consts  --      0.0060                 0.0213                 0.0115
 IR Inten    --      1.2448                 0.1313                 0.2414

                     10                     11                     12
                      A                      A                      A
 Frequencies --     96.2621               108.3672               109.9327
 Red. masses --      6.1135                 7.3967                 5.1820
 Frc consts  --      0.0334                 0.0512                 0.0369
 IR Inten    --      7.4048                 0.1544                 7.7525

                     13                     14                     15
                      A                      A                      A
 Frequencies --    117.4061               126.1279               142.8036
 Red. masses --      7.2914                10.1261                 8.6040
 Frc consts  --      0.0592                 0.0949                 0.1034
 IR Inten    --      0.6457                 2.1015                34.4532

                     16                     17                     18
                      A                      A                      A
 Frequencies --    150.2948               161.5556               197.5243
 Red. masses --      8.0810                 3.3299                 8.9217
 Frc consts  --      0.1075                 0.0512                 0.2051
 IR Inten    --      1.7199                 3.6334                 6.2923

                     19                     20                     21
                      A                      A                      A
 Frequencies --    206.7386               227.7184               238.9923
 Red. masses --      6.4254                 9.2692                 1.1437
 Frc consts  --      0.1618                 0.2832                 0.0385
 IR Inten    --      0.3887                 5.7932                 0.0095

                     22                     23                     24
                      A                      A                      A
 Frequencies --    258.9824               263.0338               274.2842
 Red. masses --      1.1162                 4.6177                 5.5987
 Frc consts  --      0.0441                 0.1882                 0.2482
 IR Inten    --      0.7167                 0.4957                 0.1991

                     25                     26                     27
                      A                      A                      A
 Frequencies --    278.9454               326.0889               334.0715
 Red. masses --      8.1498                 4.1902                 5.6999
 Frc consts  --      0.3736                 0.2625                 0.3748
 IR Inten    --      0.1455                16.7641                 1.7967

                     28                     29                     30
                      A                      A                      A
 Frequencies --    339.8780               375.8273               387.6329
 Red. masses --     18.5907                 7.0148                12.1328
 Frc consts  --      1.2653                 0.5838                 1.0741
 IR Inten    --      0.0172                48.0539                 2.2322

                     31                     32                     33
                      A                      A                      A
 Frequencies --    392.6715               435.5760               453.3238
 Red. masses --     12.0670                 8.3040                18.8540
 Frc consts  --      1.0962                 0.9283                 2.2828
 IR Inten    --      2.1168                15.4357                 0.1929

                     34                     35                     36
                      A                      A                      A
 Frequencies --    476.0269               496.9112               519.7119
 Red. masses --      5.0077                 7.1182                 5.4663
 Frc consts  --      0.6686                 1.0356                 0.8699
 IR Inten    --      0.5658                 6.0829                16.8298

                     37                     38                     39
                      A                      A                      A
 Frequencies --    536.7038               553.5948               571.8505
 Red. masses --     15.1599                13.3185                 6.2643
 Frc consts  --      2.5729                 2.4049                 1.2069
 IR Inten    --     15.8738                11.1533                 0.5904

                     40                     41                     42
                      A                      A                      A
 Frequencies --    578.9727               586.2083               590.0294
 Red. masses --     18.2521                 1.9888                18.4632
 Frc consts  --      3.6048                 0.4027                 3.7871
 IR Inten    --     88.5632                 4.0287                 6.5483

                     43                     44                     45
                      A                      A                      A
 Frequencies --    619.7654               638.8763               656.9776
 Red. masses --      5.8362                13.7888                 5.5809
 Frc consts  --      1.3208                 3.3160                 1.4192
 IR Inten    --      4.2030                77.3392                 1.4028

                     46                     47                     48
                      A                      A                      A
 Frequencies --    665.8404               696.3428               741.2928
 Red. masses --      5.9922                 3.1266                12.5223
 Frc consts  --      1.5652                 0.8932                 4.0543
 IR Inten    --     61.5570                11.7749               314.9231

                     49                     50                     51
                      A                      A                      A
 Frequencies --    762.0626               780.5870               799.9993
 Red. masses --      1.0944                 8.4859                 9.2841
 Frc consts  --      0.3745                 3.0464                 3.5008
 IR Inten    --      4.6185                59.2656                18.0874

                     52                     53                     54
                      A                      A                      A
 Frequencies --    828.0645               848.6185               850.6106
 Red. masses --      1.4785                 7.6814                14.0000
 Frc consts  --      0.5973                 3.2592                 5.9682
 IR Inten    --      7.2743               307.0521               449.3668

                     55                     56                     57
                      A                      A                      A
 Frequencies --    858.8910               869.9250               888.3498
 Red. masses --      1.6395                15.8247                 4.0517
 Frc consts  --      0.7126                 7.0558                 1.8839
 IR Inten    --    171.8427               292.7203                48.6358

                     58                     59                     60
                      A                      A                      A
 Frequencies --    901.5787               920.8377               926.5515
 Red. masses --      1.1507                 1.4426                 1.7351
 Frc consts  --      0.5511                 0.7207                 0.8776
 IR Inten    --      3.2168                29.9572                 6.6915

                     61                     62                     63
                      A                      A                      A
 Frequencies --    966.8843              1005.0769              1010.2837
 Red. masses --      5.3739                 3.6518                 1.3676
 Frc consts  --      2.9600                 2.1735                 0.8224
 IR Inten    --     35.7642                40.9225                 5.3702

                     64                     65                     66
                      A                      A                      A
 Frequencies --   1022.8456              1030.3945              1058.6494
 Red. masses --      1.6884                 6.3513                 1.0981
 Frc consts  --      1.0407                 3.9730                 0.7251
 IR Inten    --     10.5759                 7.2506                99.8395

                     67                     68                     69
                      A                      A                      A
 Frequencies --   1077.4779              1106.6422              1114.7275
 Red. masses --      2.4507                 1.7943                 2.2853
 Frc consts  --      1.6763                 1.2947                 1.6731
 IR Inten    --      0.9996                 0.3644                11.3512

                     70                     71                     72
                      A                      A                      A
 Frequencies --   1146.2114              1159.5138              1167.0821
 Red. masses --      3.3409                 1.9747                 2.3754
 Frc consts  --      2.5861                 1.5642                 1.9063
 IR Inten    --    220.9280                43.1674                13.3902

                     73                     74                     75
                      A                      A                      A
 Frequencies --   1178.9543              1194.6025              1287.2777
 Red. masses --      1.9440                 1.6675                 1.2041
 Frc consts  --      1.5920                 1.4021                 1.1756
 IR Inten    --     45.0619                 1.1135                14.4350

                     76                     77                     78
                      A                      A                      A
 Frequencies --   1288.9136              1292.6022              1310.7996
 Red. masses --      2.8038                 1.1859                 4.1337
 Frc consts  --      2.7444                 1.1674                 4.1847
 IR Inten    --    489.6416                 0.6682               234.2422

                     79                     80                     81
                      A                      A                      A
 Frequencies --   1328.6439              1332.5587              1334.9106
 Red. masses --      1.7105                 1.0713                 1.6352
 Frc consts  --      1.7790                 1.1209                 1.7168
 IR Inten    --    384.6384                 1.5535                72.1309

                     82                     83                     84
                      A                      A                      A
 Frequencies --   1350.7590              1383.0142              1419.4930
 Red. masses --      1.6545                 2.2950                 1.4482
 Frc consts  --      1.7786                 2.5863                 1.7193
 IR Inten    --    235.0263               151.3801                93.1572

                     85                     86                     87
                      A                      A                      A
 Frequencies --   1427.8399              1446.0477              1451.2509
 Red. masses --      1.2735                 1.7767                 2.9074
 Frc consts  --      1.5297                 2.1889                 3.6078
 IR Inten    --      7.1725               126.1759               392.2456

                     88                     89                     90
                      A                      A                      A
 Frequencies --   1474.1077              1481.2154              1502.8865
 Red. masses --      2.8980                 1.2095                 1.0649
 Frc consts  --      3.7103                 1.5635                 1.4172
 IR Inten    --     54.8695                13.7405                 1.4559

                     91                     92                     93
                      A                      A                      A
 Frequencies --   1512.2106              1519.1935              1521.5808
 Red. masses --      1.0372                 1.0377                 1.0760
 Frc consts  --      1.3974                 1.4111                 1.4678
 IR Inten    --      8.0629                10.6461                47.2174

                     94                     95                     96
                      A                      A                      A
 Frequencies --   1521.9990              1531.3295              1538.1103
 Red. masses --      1.0862                 2.8153                 1.1267
 Frc consts  --      1.4824                 3.8897                 1.5704
 IR Inten    --     12.7898               155.5518                10.2337

                     97                     98                     99
                      A                      A                      A
 Frequencies --   1625.2487              1655.2823              1681.5503
 Red. masses --      4.0823                 7.4310                 6.3320
 Frc consts  --      6.3532                11.9961                10.5489
 IR Inten    --    211.6609               101.9770              1178.4412

                    100                    101                    102
                      A                      A                      A
 Frequencies --   1700.3744              1795.5292              2769.9195
 Red. masses --      1.8102                 7.6714                 1.1157
 Frc consts  --      3.0837                14.5716                 5.0435
 IR Inten    --    237.7897               344.3565              2433.4625

                    103                    104                    105
                      A                      A                      A
 Frequencies --   3061.5019              3064.4118              3069.8868
 Red. masses --      1.0462                 1.0375                 1.0740
 Frc consts  --      5.7773                 5.7402                 5.9637
 IR Inten    --    100.2554                27.0465               304.9099

                    106                    107                    108
                      A                      A                      A
 Frequencies --   3071.7112              3073.0430              3085.8145
 Red. masses --      1.0834                 1.0581                 1.0600
 Frc consts  --      6.0229                 5.8871                 5.9469
 IR Inten    --    285.3012                18.5308                44.5652

                    109                    110                    111
                      A                      A                      A
 Frequencies --   3102.2087              3107.8368              3121.3498
 Red. masses --      1.1006                 1.1050                 1.1057
 Frc consts  --      6.2403                 6.2880                 6.3469
 IR Inten    --     14.3143                 6.8295                 0.0255

                    112                    113                    114
                      A                      A                      A
 Frequencies --   3131.1242              3141.2556              3141.7350
 Red. masses --      1.0955                 1.1057                 1.1016
 Frc consts  --      6.3280                 6.4283                 6.4063
 IR Inten    --     43.4222                73.9896                40.3563

                    115                    116                    117
                      A                      A                      A
 Frequencies --   3152.4561              3265.8145              3285.7283
 Red. masses --      1.1021                 1.0936                 1.0924
 Frc consts  --      6.4533                 6.8720                 6.9483
 IR Inten    --     42.1195                 7.4739                16.5194

 - Thermochemistry -
 -------------------
 Temperature   298.150 Kelvin.  Pressure   1.00000 Atm.
 Atom     1 has atomic number  6 and mass  12.00000

 Molecular mass:   412.04087 amu.
 Principal axes and moments of inertia in atomic units:
                           1         2         3
     Eigenvalues --  8289.24400********************
           X            0.99989  -0.01464  -0.00023
           Y            0.01464   0.99988   0.00413
           Z            0.00017  -0.00413   0.99999
 This molecule is an asymmetric top.
 Rotational symmetry number  1.
 Warning -- assumption of classical behavior for rotation
           may cause significant error
 Rotational temperatures (Kelvin)      0.01045     0.00528     0.00363
 Rotational constants (GHZ):           0.21772     0.11006     0.07563
 Zero-point vibrational energy     778826.8 (Joules/Mol)
                                  186.14407 (Kcal/Mol)
 Warning -- explicit consideration of  43 degrees of freedom as
           vibrations may cause significant error
 Vibrational temperatures:     22.42    42.15    46.20    60.40    73.87
          (Kelvin)             82.33    86.57   107.69   112.26   138.50
                              155.92   158.17   168.92   181.47   205.46
                              216.24   232.44   284.19   297.45   327.64
                              343.86   372.62   378.45   394.63   401.34
                              469.17   480.65   489.01   540.73   557.72
                              564.97   626.70   652.23   684.90   714.94
                              747.75   772.20   796.50   822.77   833.01
                              843.42   848.92   891.70   919.20   945.24
                              958.00  1001.88  1066.55  1096.44  1123.09
                             1151.02  1191.40  1220.97  1223.84  1235.75
                             1251.63  1278.14  1297.17  1324.88  1333.10
                             1391.13  1446.08  1453.57  1471.65  1482.51
                             1523.16  1550.25  1592.21  1603.84  1649.14
                             1668.28  1679.17  1696.25  1718.77  1852.11
                             1854.46  1859.77  1885.95  1911.62  1917.25
                             1920.64  1943.44  1989.85  2042.33  2054.34
                             2080.54  2088.03  2120.91  2131.14  2162.32
                             2175.73  2185.78  2189.22  2189.82  2203.24
                             2213.00  2338.37  2381.58  2419.38  2446.46
                             2583.37  3985.30  4404.82  4409.01  4416.88
                             4419.51  4421.42  4439.80  4463.39  4471.48
                             4490.93  4504.99  4519.57  4520.26  4535.68
                             4698.78  4727.43

 Zero-point correction=                           0.296639 (Hartree/Particle)
 Thermal correction to Energy=                    0.322968
 Thermal correction to Enthalpy=                  0.323912
 Thermal correction to Gibbs Free Energy=         0.236732
 Sum of electronic and zero-point Energies=          -2217.895061
 Sum of electronic and thermal Energies=             -2217.868733
 Sum of electronic and thermal Enthalpies=           -2217.867789
 Sum of electronic and thermal Free Energies=        -2217.954968

                     E (Thermal)             CV                S
                      KCal/Mol        Cal/Mol-Kelvin    Cal/Mol-Kelvin
 Total                  202.665             94.540            183.485
 Electronic               0.000              0.000              0.000
 Translational            0.889              2.981             43.939
 Rotational               0.889              2.981             36.426
 Vibrational            200.888             88.579            103.120
 Vibration     1          0.593              1.986              7.130
 Vibration     2          0.593              1.984              5.876
 Vibration     3          0.594              1.983              5.694
 Vibration     4          0.595              1.980              5.163
 Vibration     5          0.596              1.977              4.765
 Vibration     6          0.596              1.975              4.551
 Vibration     7          0.597              1.973              4.452
 Vibration     8          0.599              1.966              4.022
 Vibration     9          0.599              1.964              3.940
 Vibration    10          0.603              1.952              3.529
 Vibration    11          0.606              1.943              3.298
 Vibration    12          0.606              1.941              3.270
 Vibration    13          0.608              1.935              3.143
 Vibration    14          0.611              1.927              3.004
 Vibration    15          0.616              1.910              2.766
 Vibration    16          0.618              1.902              2.668
 Vibration    17          0.622              1.890              2.532
 Vibration    18          0.637              1.843              2.156
 Vibration    19          0.641              1.830              2.072
 Vibration    20          0.651              1.799              1.897
 Vibration    21          0.657              1.781              1.810
 Vibration    22          0.668              1.748              1.669
 Vibration    23          0.670              1.741              1.642
 Vibration    24          0.677              1.721              1.569
 Vibration    25          0.679              1.712              1.540
 Vibration    26          0.710              1.623              1.279
 Vibration    27          0.716              1.607              1.240
 Vibration    28          0.720              1.596              1.213
 Vibration    29          0.747              1.522              1.056
 Vibration    30          0.756              1.497              1.009
 Vibration    31          0.760              1.486              0.990
 Vibration    32          0.796              1.393              0.841
 Vibration    33          0.812              1.354              0.786
 Vibration    34          0.833              1.303              0.721
 Vibration    35          0.852              1.257              0.666
 Vibration    36          0.875              1.206              0.611
 Vibration    37          0.892              1.169              0.572
 Vibration    38          0.909              1.132              0.537
 Vibration    39          0.928              1.092              0.501
 Vibration    40          0.936              1.077              0.487
 Vibration    41          0.943              1.061              0.474
 Vibration    42          0.947              1.053              0.467
 Vibration    43          0.980              0.990              0.417

                           ! Non-Optimized Parameters !
 Normal termination of Gaussian 16 at Tue Mar 23 01:31:14 2021.
