 Gaussian 16, Revision C.01,

 ----------------------------------------------------------------------
 # M062X/6-311+G* SCF=Tight INT(grid=ultrafine) OPT=CalcFC IOP(2/17=4)
 EmpiricalDispersion=GD3 MaxDisk=10000MB
 ----------------------------------------------------------------------

 ----------------------------------------
 CP22CA_carboxy_c2.M062X_6-311pGd_opt_GD3
 ----------------------------------------
 Symbolic Z-matrix:
 Charge = -1 Multiplicity = 1

 SCF Done:  E(RM062X) =  -2218.04922624     A.U. after   18 cycles
 SCF Done:  E(RM062X) =  -2218.07438888     A.U. after   17 cycles
 SCF Done:  E(RM062X) =  -2218.13524942     A.U. after   16 cycles
 SCF Done:  E(RM062X) =  -2218.13950696     A.U. after   16 cycles
 SCF Done:  E(RM062X) =  -2218.11028734     A.U. after   16 cycles
 SCF Done:  E(RM062X) =  -2218.14394219     A.U. after   16 cycles
 SCF Done:  E(RM062X) =  -2218.12946251     A.U. after   16 cycles
 SCF Done:  E(RM062X) =  -2218.14772789     A.U. after   15 cycles
 SCF Done:  E(RM062X) =  -2218.13545472     A.U. after   17 cycles
 SCF Done:  E(RM062X) =  -2218.13629972     A.U. after   17 cycles
 SCF Done:  E(RM062X) =  -2218.15171597     A.U. after   14 cycles
 SCF Done:  E(RM062X) =  -2218.15173947     A.U. after   12 cycles
 SCF Done:  E(RM062X) =  -2218.15174512     A.U. after   11 cycles
 SCF Done:  E(RM062X) =  -2218.15174865     A.U. after   12 cycles
 SCF Done:  E(RM062X) =  -2218.15174966     A.U. after   12 cycles
 SCF Done:  E(RM062X) =  -2218.15175037     A.U. after   11 cycles
 SCF Done:  E(RM062X) =  -2218.15175031     A.U. after   11 cycles
 SCF Done:  E(RM062X) =  -2218.15175049     A.U. after   10 cycles
 SCF Done:  E(RM062X) =  -2218.15175059     A.U. after   10 cycles
 Optimization completed.
    -- Stationary point found.
 Normal termination of Gaussian 16 at Mon Mar 22 16:08:50 2021.
 Gaussian 16:  ES64L-G16RevC.01  3-Jul-2019

 ----------------------------------------------------------------------
 # M062X/6-311+G* SCF=Tight INT(grid=ultrafine) EmpiricalDispersion=GD3
  Freq=Noraman MaxDisk=10000MB geom=check guess=read IOP(2/17=4)
 ----------------------------------------------------------------------

 ----------------------------------------
 CP22CA_carboxy_c2.M062X_6-311pGd_opt_GD3
 ----------------------------------------
 Structure from the checkpoint file:  "CP22CA_carboxy_c2.M062X_6-311pGd_opt_GD3.chk"
 Charge = -1 Multiplicity = 1

                         Standard orientation:
 ---------------------------------------------------------------------
 Center     Atomic      Atomic             Coordinates (Angstroms)
 Number     Number       Type             X           Y           Z
 ---------------------------------------------------------------------
      1          6           0       -0.164239   -1.054457    0.012486
      2          7           0       -1.483769   -0.623749   -0.025496
      3          6           0       -2.566644   -1.434945   -0.116792
      4          8           0       -2.588496   -2.647421   -0.198393
      5          8           0       -3.691294   -0.688236   -0.111824
      6          6           0       -4.911920   -1.410952   -0.181917
      7          6           0       -6.035886   -0.394538   -0.162429
      8          6           0       -7.400148   -1.074924   -0.226369
      9          6           0        0.825028   -0.054180   -0.069965
     10          6           0        2.145939   -0.438470   -0.003303
     11          6           0        2.570699   -1.757102    0.127199
     12          6           0        1.570730   -2.708726    0.189397
     13          6           0        0.219694   -2.396033    0.138350
     14          1           0       -1.666044    0.424244    0.098194
     15          1           0       -4.980485   -2.099831    0.666114
     16          1           0       -4.931989   -2.013649   -1.095358
     17          1           0       -5.905794    0.288446   -1.005953
     18          1           0       -5.946577    0.209608    0.744049
     19          1           0       -7.504378   -1.669804   -1.138055
     20          1           0       -8.209432   -0.342309   -0.214752
     21          1           0       -7.548597   -1.746295    0.623975
     22          1           0        0.528623    0.988741   -0.216250
     23         17           0        2.032179   -4.392720    0.348504
     24          1           0       -0.524059   -3.175781    0.191426
     25         16           0        3.413777    0.849539   -0.099113
     26          1           0        3.615008   -2.029257    0.173273
     27          9           0        2.670088    1.796449    0.963948
     28          9           0        4.279001    0.184008    1.112634
     29          9           0        2.698114    1.606021   -1.314951
     30          9           0        4.307499   -0.006072   -1.159883
     31          9           0        4.577938    1.975404   -0.175858
     32          8           0       -0.244623    2.770262   -0.691806
     33          8           0       -1.985595    1.934484    0.442110
     34          6           0       -1.308414    2.877574   -0.058866
     35          6           0       -1.855314    4.301293    0.146960
     36          6           0       -3.214279    4.365153    0.831153
     37          1           0       -1.882113    4.779337   -0.836939
     38          1           0       -1.100847    4.849965    0.720276
     39          1           0       -3.964051    3.821572    0.252990
     40          1           0       -3.552555    5.399256    0.954067
     41          1           0       -3.172992    3.892472    1.813513
 ---------------------------------------------------------------------

 SCF Done:  E(RM062X) =  -2218.15175059     A.U. after    1 cycles

 The electronic state is 1-A.
 Alpha  occ. eigenvalues -- -102.59401 -90.17584 -25.18075 -25.18055 -25.18033
 Alpha  occ. eigenvalues --  -25.18031 -25.18022 -19.56305 -19.50299 -19.43474
 Alpha  occ. eigenvalues --  -19.42461 -14.66385 -10.59492 -10.52610 -10.51084
 Alpha  occ. eigenvalues --  -10.50614 -10.50531 -10.49293 -10.47573 -10.46180
 Alpha  occ. eigenvalues --  -10.46112 -10.45768 -10.45763 -10.40824 -10.40674
 Alpha  occ. eigenvalues --   -9.73672  -8.49909  -7.46175  -7.45517  -7.45512
 Alpha  occ. eigenvalues --   -6.42328  -6.42317  -6.41874  -1.39794  -1.29768
 Alpha  occ. eigenvalues --   -1.29750  -1.26767  -1.25307  -1.14313  -1.04230
 Alpha  occ. eigenvalues --   -1.02224  -0.95573  -0.92483  -0.91360  -0.87148
 Alpha  occ. eigenvalues --   -0.82807  -0.81373  -0.76607  -0.75001  -0.73990
 Alpha  occ. eigenvalues --   -0.71167  -0.65985  -0.63900  -0.63235  -0.62683
 Alpha  occ. eigenvalues --   -0.60433  -0.59804  -0.58770  -0.55444  -0.53800
 Alpha  occ. eigenvalues --   -0.53675  -0.51969  -0.51077  -0.50143  -0.49495
 Alpha  occ. eigenvalues --   -0.48850  -0.47884  -0.46044  -0.45529  -0.45085
 Alpha  occ. eigenvalues --   -0.44937  -0.44832  -0.44722  -0.44337  -0.43491
 Alpha  occ. eigenvalues --   -0.42374  -0.42284  -0.41784  -0.41152  -0.41004
 Alpha  occ. eigenvalues --   -0.40541  -0.39799  -0.39540  -0.39177  -0.37983
 Alpha  occ. eigenvalues --   -0.37142  -0.36446  -0.35672  -0.35490  -0.33802
 Alpha  occ. eigenvalues --   -0.33344  -0.33060  -0.32578  -0.32214  -0.31977
 Alpha  occ. eigenvalues --   -0.30005  -0.29843  -0.28401  -0.27846  -0.27663
 Alpha  occ. eigenvalues --   -0.26224  -0.22475  -0.18784  -0.18709  -0.18040
 Alpha  occ. eigenvalues --   -0.17251
 Alpha virt. eigenvalues --    0.07922   0.08063   0.08732   0.09705   0.10065
 Alpha virt. eigenvalues --    0.10218   0.10904   0.10964   0.11579   0.12489
 Alpha virt. eigenvalues --    0.12786   0.13027   0.13370   0.13841   0.13906

 Mulliken charges:
               1
     1  C   -0.030422
     2  N   -0.576150
     3  C   -0.024388
     4  O   -0.337752
     5  O    0.003256
     6  C   -0.300814
     7  C   -0.152836
     8  C   -1.086526
     9  C   -0.282048
    10  C   -1.258943
    11  C   -0.622048
    12  C    0.561909
    13  C   -0.557332
    14  H    0.565117
    15  H    0.247695
    16  H    0.244055
    17  H    0.264193
    18  H    0.268423
    19  H    0.249901
    20  H    0.260994
    21  H    0.249664
    22  H    0.430510
    23  Cl   0.387397
    24  H    0.316034
    25  S    0.504094
    26  H    0.305154
    27  F    0.103425
    28  F    0.016231
    29  F    0.116732
    30  F    0.013578
    31  F   -0.005190
    32  O   -0.432743
    33  O   -0.429290
    34  C    0.064277
    35  C   -0.348235
    36  C   -0.957077
    37  H    0.245663
    38  H    0.247787
    39  H    0.253328
    40  H    0.225712
    41  H    0.256665
 Sum of Mulliken charges =  -1.00000

 Dipole moment (field-independent basis, Debye):
    X=             -1.6115    Y=             -3.9889    Z=              0.6340  Tot=              4.3486
 Quadrupole moment (field-independent basis, Debye-Ang):
   XX=           -193.2306   YY=           -204.2096   ZZ=           -168.0379
   XY=             -0.0745   XZ=              2.9610   YZ=              1.6202

  Exact polarizability:     278.315      -8.475     248.038      -2.287      -3.964     142.912
 Approx polarizability:     288.098      -3.550     282.723      -3.720      -7.291     191.665

                      1                      2                      3
                      A                      A                      A
 Frequencies --     11.9551                19.7799                27.6701
 Red. masses --      4.9115                 5.6329                 5.4464
 Frc consts  --      0.0004                 0.0013                 0.0025
 IR Inten    --      0.1391                 1.2446                 0.3360

                      4                      5                      6
                      A                      A                      A
 Frequencies --     31.5212                36.0621                41.2029
 Red. masses --      5.4845                 6.2915                 2.6645
 Frc consts  --      0.0032                 0.0048                 0.0027
 IR Inten    --      0.5726                 0.7086                 1.2289

                      7                      8                      9
                      A                      A                      A
 Frequencies --     41.4790                53.9424                65.7924
 Red. masses --      2.8532                 4.1691                 4.0009
 Frc consts  --      0.0029                 0.0071                 0.0102
 IR Inten    --      0.5791                 0.7371                 2.7961

                     10                     11                     12
                      A                      A                      A
 Frequencies --     74.0944                84.7772                95.3309
 Red. masses --      5.8609                 4.9168                 6.1693
 Frc consts  --      0.0190                 0.0208                 0.0330
 IR Inten    --      2.5900                 0.5561                 4.5479

                     13                     14                     15
                      A                      A                      A
 Frequencies --    114.1347               121.9606               139.9814
 Red. masses --      5.4558                 9.8795                 7.0296
 Frc consts  --      0.0419                 0.0866                 0.0812
 IR Inten    --      2.7466                 1.4291                27.5150

                     16                     17                     18
                      A                      A                      A
 Frequencies --    149.1542               163.2818               196.6013
 Red. masses --      7.6265                 3.3464                 8.9896
 Frc consts  --      0.1000                 0.0526                 0.2047
 IR Inten    --      1.4397                 3.4899                 4.3414

                     19                     20                     21
                      A                      A                      A
 Frequencies --    204.1174               222.5080               226.3217
 Red. masses --      6.1829                 1.1967                 6.0730
 Frc consts  --      0.1518                 0.0349                 0.1833
 IR Inten    --      0.2954                 0.6574                 5.4049

                     22                     23                     24
                      A                      A                      A
 Frequencies --    238.2788               263.1956               274.4161
 Red. masses --      1.1303                 4.8693                 5.7240
 Frc consts  --      0.0378                 0.1987                 0.2540
 IR Inten    --      0.0076                 0.3050                 0.0522

                     25                     26                     27
                      A                      A                      A
 Frequencies --    277.1965               313.7818               333.6845
 Red. masses --      8.1297                 4.1532                 6.2255
 Frc consts  --      0.3680                 0.2409                 0.4084
 IR Inten    --      0.1013                28.8210                 2.0629

                     28                     29                     30
                      A                      A                      A
 Frequencies --    337.4099               375.9120               385.8203
 Red. masses --     17.8798                 6.8459                11.7719
 Frc consts  --      1.1993                 0.5700                 1.0324
 IR Inten    --      0.0644                40.8246                 1.2998

                     31                     32                     33
                      A                      A                      A
 Frequencies --    391.3783               435.8128               452.1782
 Red. masses --     11.9433                 8.2548                18.8476
 Frc consts  --      1.0779                 0.9238                 2.2705
 IR Inten    --      1.4787                14.8925                 0.1473

                     34                     35                     36
                      A                      A                      A
 Frequencies --    474.7096               495.5119               511.6110
 Red. masses --      5.0267                 7.0176                 5.5294
 Frc consts  --      0.6674                 1.0152                 0.8527
 IR Inten    --      1.4411                 5.5900                11.1383

                     37                     38                     39
                      A                      A                      A
 Frequencies --    536.1697               552.6103               568.5594
 Red. masses --     14.6952                13.3301                 6.4212
 Frc consts  --      2.4890                 2.3984                 1.2230
 IR Inten    --     10.8697                 6.7704                 0.7746

                     40                     41                     42
                      A                      A                      A
 Frequencies --    580.2311               588.1280               591.7141
 Red. masses --     18.2285                 1.9949                17.5874
 Frc consts  --      3.6158                 0.4066                 3.6281
 IR Inten    --     64.8462                 3.9713                 5.0351

                     43                     44                     45
                      A                      A                      A
 Frequencies --    618.6755               642.1337               657.1166
 Red. masses --      5.9325                12.9266                 5.9342
 Frc consts  --      1.3379                 3.1404                 1.5097
 IR Inten    --      3.1286                51.4236                 0.4111

                     46                     47                     48
                      A                      A                      A
 Frequencies --    665.9186               693.4593               745.0110
 Red. masses --      5.7167                 3.0673                11.8410
 Frc consts  --      1.4936                 0.8691                 3.8723
 IR Inten    --     67.2136                10.0079               278.6464

                     49                     50                     51
                      A                      A                      A
 Frequencies --    759.6380               776.1615               802.7940
 Red. masses --      1.0925                 8.0584                 9.4007
 Frc consts  --      0.3714                 2.8602                 3.5696
 IR Inten    --      2.5945                55.2543                15.3994

                     52                     53                     54
                      A                      A                      A
 Frequencies --    823.2399               847.9212               861.4218
 Red. masses --      1.4652                 1.5270                16.3286
 Frc consts  --      0.5850                 0.6469                 7.1389
 IR Inten    --      5.9867                 3.2260               417.3309

                     55                     56                     57
                      A                      A                      A
 Frequencies --    868.1805               877.3651               883.4796
 Red. masses --      9.7415                17.9088                 3.9840
 Frc consts  --      4.3261                 8.1223                 1.8322
 IR Inten    --    378.5879               239.7056                40.7071

                     58                     59                     60
                      A                      A                      A
 Frequencies --    901.0630               923.5492               924.8561
 Red. masses --      1.1519                 1.6071                 1.5541
 Frc consts  --      0.5510                 0.8077                 0.7832
 IR Inten    --      2.2814                18.3185                16.6583

                     61                     62                     63
                      A                      A                      A
 Frequencies --    964.6720               993.5242              1009.3283
 Red. masses --      5.1001                 1.4921                 3.0614
 Frc consts  --      2.7963                 0.8678                 1.8375
 IR Inten    --     20.7010                20.5507                25.8209

                     64                     65                     66
                      A                      A                      A
 Frequencies --   1017.1105              1026.7806              1075.7364
 Red. masses --      1.7626                 6.2634                 2.4721
 Frc consts  --      1.0744                 3.8906                 1.6855
 IR Inten    --     12.7520                22.6344                 5.9157

                     67                     68                     69
                      A                      A                      A
 Frequencies --   1106.2931              1108.5544              1109.7262
 Red. masses --      1.3186                 1.4928                 2.2660
 Frc consts  --      0.9508                 1.0808                 1.6441
 IR Inten    --     37.5967                35.8783                10.1475

                     70                     71                     72
                      A                      A                      A
 Frequencies --   1149.8536              1164.0819              1166.4398
 Red. masses --      1.7686                 3.5801                 2.4312
 Frc consts  --      1.3777                 2.8583                 1.9489
 IR Inten    --     98.9980               114.0857                 0.2658

                     73                     74                     75
                      A                      A                      A
 Frequencies --   1176.5157              1196.2688              1287.5496
 Red. masses --      1.9516                 1.6699                 1.1898
 Frc consts  --      1.5916                 1.4080                 1.1621
 IR Inten    --     53.9832                 0.8031                 2.2818

                     76                     77                     78
                      A                      A                      A
 Frequencies --   1289.2526              1291.4534              1308.9516
 Red. masses --      1.1907                 2.6229                 4.3093
 Frc consts  --      1.1661                 2.5774                 4.3501
 IR Inten    --      0.7392               306.6769               237.4997

                     79                     80                     81
                      A                      A                      A
 Frequencies --   1329.4810              1331.9178              1332.3320
 Red. masses --      1.6349                 1.5718                 1.0975
 Frc consts  --      1.7025                 1.6429                 1.1479
 IR Inten    --    246.9741               114.2327                16.5021

                     82                     83                     84
                      A                      A                      A
 Frequencies --   1352.8422              1380.3590              1412.7098
 Red. masses --      1.6464                 2.5361                 1.4494
 Frc consts  --      1.7753                 2.8471                 1.7043
 IR Inten    --    181.5607               191.0072                82.5202

                     85                     86                     87
                      A                      A                      A
 Frequencies --   1427.3679              1445.4309              1449.1731
 Red. masses --      1.2687                 2.5444                 2.0856
 Frc consts  --      1.5229                 3.1320                 2.5807
 IR Inten    --      5.0710               348.9103               170.1214

                     88                     89                     90
                      A                      A                      A
 Frequencies --   1474.7584              1486.3881              1508.4255
 Red. masses --      3.1223                 1.1472                 1.0417
 Frc consts  --      4.0010                 1.4933                 1.3965
 IR Inten    --     39.1102                 5.9954                 4.4050

                     91                     92                     93
                      A                      A                      A
 Frequencies --   1509.4168              1520.9405              1524.2529
 Red. masses --      1.0618                 1.0803                 1.0385
 Frc consts  --      1.4253                 1.4724                 1.4216
 IR Inten    --      3.3510                50.0861                 8.2502

                     94                     95                     96
                      A                      A                      A
 Frequencies --   1526.4157              1530.1910              1540.8760
 Red. masses --      1.0838                 2.9659                 1.1020
 Frc consts  --      1.4878                 4.0916                 1.5416
 IR Inten    --      1.9199               162.7107                 8.1957

                     97                     98                     99
                      A                      A                      A
 Frequencies --   1625.7572              1656.1150              1684.4816
 Red. masses --      4.6673                 6.2285                 7.0446
 Frc consts  --      7.2682                10.0651                11.7772
 IR Inten    --    144.7768               112.5937               558.8037

                    100                    101                    102
                      A                      A                      A
 Frequencies --   1709.9334              1797.4086              2525.7017
 Red. masses --      1.7050                 7.7490                 1.1431
 Frc consts  --      2.9372                14.7500                 4.2962
 IR Inten    --    603.1942               284.1178              2626.3583

                    103                    104                    105
                      A                      A                      A
 Frequencies --   3054.7789              3060.8626              3065.2352
 Red. masses --      1.0440                 1.0388                 1.0556
 Frc consts  --      5.7400                 5.7344                 5.8434
 IR Inten    --     85.7770                16.8393                46.8405

                    106                    107                    108
                      A                      A                      A
 Frequencies --   3069.3819              3078.6299              3086.6640
 Red. masses --      1.0608                 1.0994                 1.0607
 Frc consts  --      5.8884                 6.1395                 5.9542
 IR Inten    --     30.1199               439.2374                32.8717

                    109                    110                    111
                      A                      A                      A
 Frequencies --   3099.6751              3101.0138              3115.4103
 Red. masses --      1.1057                 1.1007                 1.1039
 Frc consts  --      6.2595                 6.2364                 6.3125
 IR Inten    --     12.9134                13.7854                 0.6236

                    112                    113                    114
                      A                      A                      A
 Frequencies --   3125.9420              3138.1299              3139.9052
 Red. masses --      1.0951                 1.1009                 1.1053
 Frc consts  --      6.3049                 6.3879                 6.4204
 IR Inten    --     42.4558                38.0736                60.6190

                    115                    116                    117
                      A                      A                      A
 Frequencies --   3149.4641              3269.2358              3284.0455
 Red. masses --      1.1017                 1.0930                 1.0920
 Frc consts  --      6.4385                 6.8830                 6.9387
 IR Inten    --     37.7039                 4.7192                11.6039

 - Thermochemistry -
 -------------------
 Temperature   298.150 Kelvin.  Pressure   1.00000 Atm.
 Atom     1 has atomic number  6 and mass  12.00000

 Molecular mass:   412.04087 amu.
 Principal axes and moments of inertia in atomic units:
                           1         2         3
     Eigenvalues --  8171.27462********************
           X            0.99990  -0.01409   0.00018
           Y            0.01408   0.99987   0.00747
           Z           -0.00029  -0.00746   0.99997
 This molecule is an asymmetric top.
 Rotational symmetry number  1.
 Warning -- assumption of classical behavior for rotation
           may cause significant error
 Rotational temperatures (Kelvin)      0.01060     0.00525     0.00366
 Rotational constants (GHZ):           0.22086     0.10944     0.07622
 Zero-point vibrational energy     775988.3 (Joules/Mol)
                                  185.46565 (Kcal/Mol)
 Warning -- explicit consideration of  43 degrees of freedom as
           vibrations may cause significant error
 Vibrational temperatures:     17.20    28.46    39.81    45.35    51.89
          (Kelvin)             59.28    59.68    77.61    94.66   106.61
                              121.98   137.16   164.21   175.47   201.40
                              214.60   234.93   282.87   293.68   320.14
                              325.63   342.83   378.68   394.82   398.82
                              451.46   480.10   485.46   540.85   555.11
                              563.11   627.04   650.58   683.00   712.93
                              736.09   771.43   795.08   818.03   834.82
                              846.19   851.34   890.14   923.89   945.44
                              958.11   997.73  1071.90  1092.95  1116.72
                             1155.04  1184.46  1219.97  1239.39  1249.12
                             1262.33  1271.13  1296.43  1328.78  1330.66
                             1387.95  1429.46  1452.20  1463.40  1477.31
                             1547.74  1591.71  1594.96  1596.65  1654.38
                             1674.85  1678.25  1692.74  1721.16  1852.50
                             1854.95  1858.11  1883.29  1912.83  1916.33
                             1916.93  1946.44  1986.03  2032.57  2053.66
                             2079.65  2085.04  2121.85  2138.58  2170.29
                             2171.71  2188.29  2193.06  2196.17  2201.60
                             2216.98  2339.10  2382.78  2423.59  2460.21
                             2586.07  3633.92  4395.15  4403.90  4410.19
                             4416.16  4429.46  4441.02  4459.74  4461.67
                             4482.38  4497.53  4515.07  4517.62  4531.38
                             4703.70  4725.01

 Zero-point correction=                           0.295558 (Hartree/Particle)
 Thermal correction to Energy=                    0.322341
 Thermal correction to Enthalpy=                  0.323286
 Thermal correction to Gibbs Free Energy=         0.232747
 Sum of electronic and zero-point Energies=          -2217.856192
 Sum of electronic and thermal Energies=             -2217.829409
 Sum of electronic and thermal Enthalpies=           -2217.828465
 Sum of electronic and thermal Free Energies=        -2217.919004

                     E (Thermal)             CV                S
                      KCal/Mol        Cal/Mol-Kelvin    Cal/Mol-Kelvin
 Total                  202.272             94.724            190.555
 Electronic               0.000              0.000              0.000
 Translational            0.889              2.981             43.939
 Rotational               0.889              2.981             36.410
 Vibrational            200.495             88.762            110.207
 Vibration     1          0.593              1.987              7.656
 Vibration     2          0.593              1.986              6.656
 Vibration     3          0.593              1.984              5.990
 Vibration     4          0.594              1.983              5.731
 Vibration     5          0.594              1.982              5.464
 Vibration     6          0.594              1.981              5.200
 Vibration     7          0.594              1.981              5.187
 Vibration     8          0.596              1.976              4.667
 Vibration     9          0.597              1.971              4.275
 Vibration    10          0.599              1.966              4.042
 Vibration    11          0.601              1.960              3.777
 Vibration    12          0.603              1.953              3.548
 Vibration    13          0.607              1.938              3.197
 Vibration    14          0.609              1.931              3.069
 Vibration    15          0.615              1.913              2.804
 Vibration    16          0.618              1.904              2.683
 Vibration    17          0.623              1.888              2.511
 Vibration    18          0.636              1.845              2.165
 Vibration    19          0.640              1.834              2.096
 Vibration    20          0.648              1.807              1.939
 Vibration    21          0.650              1.801              1.908
 Vibration    22          0.656              1.782              1.816
 Vibration    23          0.670              1.740              1.640
 Vibration    24          0.677              1.721              1.568
 Vibration    25          0.678              1.716              1.551
 Vibration    26          0.702              1.647              1.342
 Vibration    27          0.715              1.608              1.242
 Vibration    28          0.718              1.601              1.224
 Vibration    29          0.747              1.521              1.056
 Vibration    30          0.755              1.500              1.016
 Vibration    31          0.759              1.489              0.995
 Vibration    32          0.796              1.392              0.840
 Vibration    33          0.811              1.356              0.789
 Vibration    34          0.831              1.306              0.724
 Vibration    35          0.851              1.260              0.669
 Vibration    36          0.867              1.224              0.630
 Vibration    37          0.891              1.170              0.574
 Vibration    38          0.908              1.134              0.539
 Vibration    39          0.925              1.099              0.507
 Vibration    40          0.937              1.074              0.485
 Vibration    41          0.945              1.057              0.471
 Vibration    42          0.949              1.049              0.464
 Vibration    43          0.979              0.992              0.419

 Optimization completed.
    -- Stationary point found.
 Normal termination of Gaussian 16 at Tue Mar 23 02:03:01 2021.
