 Q-Chem 5.0, Q-Chem, Inc., Pleasanton, CA (2017)
 Q-Chem 5.0.0 for Intel X86 EM64T Linux

User input:
--------------------------------------------------------------
$molecule
  0 1
    C     -6.2009231637    1.1990203291    0.6560703402
    N     -4.9142114676    0.6459745048    0.6490924609
    C     -3.7212946558    1.3045173835    0.3685412452
    O     -3.6480555079    2.4834609009    0.1015979647
    N     -2.6215149277    0.4852927514    0.4523941644
    C     -1.3212566893    1.0160004795    0.0609797986
    C     -0.2179881904    0.0273533668    0.4078676260
    C      1.1560335356    0.5626239616    0.0173066045
    C     -6.5036395506    2.4537168803    0.1204754150
    C     -7.8141412702    2.9187704705    0.1366871993
    C     -8.8361418833    2.1438200575    0.6825167252
    C     -8.5369664744    0.8980357944    1.2152670638
    C     -7.2333003554    0.4324190255    1.2026408709
    H     -4.8375477155   -0.2673863287    1.0705467710
    H     -2.7588539891   -0.5051818099    0.3100634237
    H     -1.1749202459    1.9567526753    0.5939704971
    H     -1.3057767869    1.2514197699   -1.0098178583
    H     -0.4005045032   -0.9230921437   -0.1077813095
    H     -0.2525923503   -0.1831702818    1.4808797339
    H      1.2131551346    0.7584071106   -1.0560819950
    H      1.9440043725   -0.1489565459    0.2681185016
    H      1.3740347313    1.4983193806    0.5373684005
    H     -5.7199573762    3.0661907029   -0.2970930212
    C     -8.1075334885    4.2777464305   -0.4514059011
    Cl   -10.4860670074    2.6888579962    0.7210369835
    H     -9.3301565174    0.2966433893    1.6414681285
    H     -7.0169405040   -0.5443075120    1.6245592595
    F     -8.9756300916    4.2012870317   -1.4696151085
    F     -8.6324983511    5.1107595171    0.4569397779
    F     -7.0023947108    4.8632747122   -0.9255337623

$end

$rem

    JOBTYPE               sp
    METHOD                CCSD(T)
    BASIS                 6-31+G*
    CC_BACKEND            XM

    MEM_TOTAL             60000
$end
--------------------------------------------------------------

             Standard Nuclear Orientation (Angstroms)
    I     Atom           X                Y                Z
 ----------------------------------------------------------------
    1      C      -0.0437786203    -1.0767308162     0.0500117141
    2      N      -1.4385855805    -1.1834202173     0.1183218808
    3      C      -2.3657556522    -0.1594528324    -0.0468588701
    4      O      -2.0670655268     0.9877719052    -0.2942252291
    5      N      -3.6662562909    -0.5865681640     0.0712357632
    6      C      -4.7344425272     0.4053010462     0.0447589925
    7      C      -6.0926956069    -0.2784116242    -0.0066337562
    8      C      -7.2295758860     0.7379609429    -0.0450819110
    9      C       0.6375845053     0.1432490936     0.0624969518
   10      C       2.0275854417     0.1636640084     0.0246413189
   11      C       2.7543415530    -1.0247707024    -0.0244683549
   12      C       2.0791335948    -2.2368887564    -0.0375570949
   13      C       0.6954302270    -2.2612561097    -0.0018503991
   14      H      -1.7982223194    -2.1257643152     0.0988771953
   15      H      -3.8426838892    -1.4157480492     0.6203203966
   16      H      -4.5846485088     1.0279003442    -0.8386661597
   17      H      -4.6687744547     1.0680897488     0.9157746822
   18      H      -6.2112332405    -0.9269995507     0.8696283213
   19      H      -6.1324628977    -0.9261894000    -0.8873579775
   20      H      -7.2157897080     1.3796316166     0.8391271660
   21      H      -8.2013828007     0.2436376845    -0.0823284275
   22      H      -7.1493791315     1.3820757282    -0.9238306431
   23      H       0.0859608223     1.0697991342     0.0918511234
   24      C       2.7328572978     1.4982319185     0.0410196809
   25      Cl      4.4916549006    -1.0415429732    -0.0720509473
   26      H       2.6431807552    -3.1602975428    -0.0780247441
   27      H       0.1833205894    -3.2185577049    -0.0136324210
   28      F       3.5409912719     1.6197966601     1.1032481099
   29      F       3.4846586580     1.6777428736    -1.0531289899
   30      F       1.8677159396     2.5170181627     0.0917871339
 ----------------------------------------------------------------

   15   -1365.1613866908      9.44E-09 Convergence criterion met
 Total energy in the final basis set = -1365.1613866908
 CCSD total energy           = -1367.82419345
 CCSD(T) total energy       = -1367.92407367

                    Orbital Energies (a.u.)
 --------------------------------------------------------------

 Alpha MOs
 -- Occupied --
******* -26.349 -26.344 -26.344 -20.548 -15.629 -15.606 -11.517
-11.406 -11.321 -11.319 -11.287 -11.274 -11.273 -11.271 -11.262
-11.244 -11.231 -10.569  -8.039  -8.035  -8.035  -1.731  -1.633
 -1.630  -1.425  -1.286  -1.246  -1.207  -1.129  -1.083  -1.072
 -1.018  -0.969  -0.943  -0.887  -0.866  -0.834  -0.827  -0.818
 -0.814  -0.794  -0.765  -0.718  -0.705  -0.705  -0.683  -0.676
 -0.670  -0.656  -0.653  -0.647  -0.640  -0.631  -0.627  -0.617
 -0.595  -0.583  -0.569  -0.553  -0.550  -0.541  -0.524  -0.509
 -0.500  -0.493  -0.463  -0.457  -0.447  -0.415  -0.375  -0.322

          Ground-State Mulliken Net Atomic Charges

     Atom                 Charge (a.u.)
  ----------------------------------------
      1 C                    -0.211686
      2 N                    -0.824581
      3 C                     0.680216
      4 O                    -0.632682
      5 N                    -0.664216
      6 C                    -0.044694
      7 C                    -0.280151
      8 C                    -0.672471
      9 C                     0.146728
     10 C                    -0.923723
     11 C                     0.427647
     12 C                    -0.366779
     13 C                    -0.577305
     14 H                     0.457169
     15 H                     0.416334
     16 H                     0.225604
     17 H                     0.202841
     18 H                     0.179971
     19 H                     0.207039
     20 H                     0.197012
     21 H                     0.199556
     22 H                     0.198840
     23 H                     0.348719
     24 C                     1.663254
     25 Cl                    0.310842
     26 H                     0.265289
     27 H                     0.233519
     28 F                    -0.363317
     29 F                    -0.361565
     30 F                    -0.437409
  ----------------------------------------
  Sum of atomic charges =    -0.000000

                    Cartesian Multipole Moments
 -----------------------------------------------------------------
    Charge (ESU x 10^10)
                -0.0000
    Dipole Moment (Debye)
         X      -5.9976      Y      -5.7809      Z       1.1209
       Tot       8.4051
    Quadrupole Moments (Debye-Ang)
        XX    -105.4599     XY       2.6394     YY    -106.5439
        XZ      -3.8253     YZ      -0.4902     ZZ    -115.4787

 Total job time:  92431.33s(wall), 306865.81s(cpu)
        *  Thank you very much for using Q-Chem.  Have a nice day.  *
