 Gaussian 16, Revision C.01,
 Gaussian 16:  ES64L-G16RevC.01  3-Jul-2019

 ---------------------------------------------------------------------
 # DSDPBEP86/AUG-cc-PVTZ SCF=Tight INT(grid=ultrafine) MaxDisk=60000MB
 ---------------------------------------------------------------------

 ------------------------
 29.DSDPBEP86_AUG-cc-PVTZ
 ------------------------
 Symbolic Z-matrix:
 Charge =  0 Multiplicity = 1

                         Standard orientation:
 ---------------------------------------------------------------------
 Center     Atomic      Atomic             Coordinates (Angstroms)
 Number     Number       Type             X           Y           Z
 ---------------------------------------------------------------------
      1          6           0       -0.043779   -1.076731    0.050012
      2          7           0       -1.438586   -1.183420    0.118322
      3          6           0       -2.365756   -0.159453   -0.046859
      4          8           0       -2.067066    0.987772   -0.294225
      5          7           0       -3.666256   -0.586568    0.071236
      6          6           0       -4.734443    0.405301    0.044759
      7          6           0       -6.092696   -0.278412   -0.006634
      8          6           0       -7.229576    0.737961   -0.045082
      9          6           0        0.637585    0.143249    0.062497
     10          6           0        2.027585    0.163664    0.024641
     11          6           0        2.754342   -1.024771   -0.024468
     12          6           0        2.079134   -2.236889   -0.037557
     13          6           0        0.695430   -2.261256   -0.001850
     14          1           0       -1.798222   -2.125764    0.098877
     15          1           0       -3.842684   -1.415748    0.620320
     16          1           0       -4.584649    1.027900   -0.838666
     17          1           0       -4.668774    1.068090    0.915775
     18          1           0       -6.211233   -0.927000    0.869628
     19          1           0       -6.132463   -0.926189   -0.887358
     20          1           0       -7.215790    1.379632    0.839127
     21          1           0       -8.201383    0.243638   -0.082328
     22          1           0       -7.149379    1.382076   -0.923831
     23          1           0        0.085961    1.069799    0.091851
     24          6           0        2.732857    1.498232    0.041020
     25         17           0        4.491655   -1.041543   -0.072051
     26          1           0        2.643181   -3.160298   -0.078025
     27          1           0        0.183321   -3.218558   -0.013632
     28          9           0        3.540991    1.619797    1.103248
     29          9           0        3.484659    1.677743   -1.053129
     30          9           0        1.867716    2.517018    0.091787
 ---------------------------------------------------------------------

 SCF Done:  E(RDSDPBEP86) =  -1367.76546174     A.U. after   13 cycles
 E2(DSDPBEP86) =    -0.1696343643D+01 E(DSDPBEP86) =    -0.13694618053852D+04

 The electronic state is 1-A.
 Alpha  occ. eigenvalues -- -103.57522 -25.70532 -25.70152 -25.70142 -19.98053
 Alpha  occ. eigenvalues --  -15.13564 -15.11455 -11.08331 -10.97383 -10.90130
 Alpha  occ. eigenvalues --  -10.89745 -10.86582 -10.85843 -10.85223 -10.85085
 Alpha  occ. eigenvalues --  -10.84298 -10.82999 -10.81647 -10.15021  -7.72707
 Alpha  occ. eigenvalues --   -7.72221  -7.72208  -1.57063  -1.47632  -1.47351
 Alpha  occ. eigenvalues --   -1.28997  -1.16464  -1.12877  -1.09329  -1.02284
 Alpha  occ. eigenvalues --   -0.97634  -0.96819  -0.91773  -0.87196  -0.85007
 Alpha  occ. eigenvalues --   -0.79821  -0.78025  -0.75195  -0.74506  -0.73169
 Alpha  occ. eigenvalues --   -0.72972  -0.71184  -0.68940  -0.64325  -0.61801
 Alpha  occ. eigenvalues --   -0.61499  -0.61431  -0.60860  -0.59662  -0.58172
 Alpha  occ. eigenvalues --   -0.57423  -0.57121  -0.56608  -0.55599  -0.55137
 Alpha  occ. eigenvalues --   -0.55084  -0.52618  -0.52401  -0.51081  -0.49740
 Alpha  occ. eigenvalues --   -0.49190  -0.47740  -0.46957  -0.45618  -0.44640
 Alpha  occ. eigenvalues --   -0.43964  -0.40861  -0.39840  -0.39434  -0.36349
 Alpha  occ. eigenvalues --   -0.34453  -0.29132
 Alpha virt. eigenvalues --    0.00069   0.01431   0.02202   0.02451   0.02934
 Alpha virt. eigenvalues --    0.03060   0.03663   0.04103   0.04670   0.04733
 Alpha virt. eigenvalues --    0.05193   0.05306   0.05972   0.06747   0.06915

 Mulliken charges:
               1
     1  C    0.655728
     2  N   -0.382312
     3  C    0.091157
     4  O   -0.767574
     5  N   -0.148373
     6  C   -0.155203
     7  C   -0.411774
     8  C   -0.978249
     9  C   -0.689167
    10  C    0.341724
    11  C    0.677918
    12  C   -0.773971
    13  C   -0.357425
    14  H    0.024987
    15  H    0.048214
    16  H    0.309124
    17  H    0.286635
    18  H    0.233181
    19  H    0.253210
    20  H    0.274864
    21  H    0.276997
    22  H    0.277718
    23  H    0.456523
    24  C    1.234947
    25  Cl  -0.463218
    26  H    0.398260
    27  H    0.469127
    28  F   -0.407303
    29  F   -0.409871
    30  F   -0.365874
 Sum of Mulliken charges =  -0.00000

 Dipole moment (field-independent basis, Debye):
    X=             -5.8527    Y=             -5.3977    Z=              1.0340  Tot=              8.0286
 Quadrupole moment (field-independent basis, Debye-Ang):
   XX=           -103.4301   YY=           -105.8546   ZZ=           -113.8721
   XY=              2.6362   XZ=             -3.5215   YZ=             -0.4608

 Normal termination of Gaussian 16 at Wed Sep  9 20:35:45 2020.
