 Gaussian 09, Revision E.01,
 Gaussian 09:  ES64L-G09RevE.01 30-Nov-2015

 -------------------------------------------------------------
 # MP2/Gen 6D SCF=Tight INT(grid=ultrafine) maxdisk=3489660928
 -------------------------------------------------------------

 --------------
 29.MP2_6-31pGd
 --------------
 Symbolic Z-matrix:
 Charge =  0 Multiplicity = 1

                         Standard orientation:
 ---------------------------------------------------------------------
 Center     Atomic      Atomic             Coordinates (Angstroms)
 Number     Number       Type             X           Y           Z
 ---------------------------------------------------------------------
      1          6           0       -0.043779   -1.076731    0.050012
      2          7           0       -1.438586   -1.183420    0.118322
      3          6           0       -2.365756   -0.159453   -0.046859
      4          8           0       -2.067066    0.987772   -0.294225
      5          7           0       -3.666256   -0.586568    0.071236
      6          6           0       -4.734443    0.405301    0.044759
      7          6           0       -6.092696   -0.278412   -0.006634
      8          6           0       -7.229576    0.737961   -0.045082
      9          6           0        0.637585    0.143249    0.062497
     10          6           0        2.027585    0.163664    0.024641
     11          6           0        2.754342   -1.024771   -0.024468
     12          6           0        2.079134   -2.236889   -0.037557
     13          6           0        0.695430   -2.261256   -0.001850
     14          1           0       -1.798222   -2.125764    0.098877
     15          1           0       -3.842684   -1.415748    0.620320
     16          1           0       -4.584649    1.027900   -0.838666
     17          1           0       -4.668774    1.068090    0.915775
     18          1           0       -6.211233   -0.927000    0.869628
     19          1           0       -6.132463   -0.926189   -0.887358
     20          1           0       -7.215790    1.379632    0.839127
     21          1           0       -8.201383    0.243638   -0.082328
     22          1           0       -7.149379    1.382076   -0.923831
     23          1           0        0.085961    1.069799    0.091851
     24          6           0        2.732857    1.498232    0.041020
     25         17           0        4.491655   -1.041543   -0.072051
     26          1           0        2.643181   -3.160298   -0.078025
     27          1           0        0.183321   -3.218558   -0.013632
     28          9           0        3.540991    1.619797    1.103248
     29          9           0        3.484659    1.677743   -1.053129
     30          9           0        1.867716    2.517018    0.091787
 ---------------------------------------------------------------------

 SCF Done:  E(RHF) =  -1365.16138670     A.U. after   17 cycles
 E2 =    -0.2581303776D+01 EUMP2 =    -0.13677426904794D+04

 The electronic state is 1-A.
 Alpha  occ. eigenvalues -- -104.83669 -26.34866 -26.34410 -26.34396 -20.54828
 Alpha  occ. eigenvalues --  -15.62903 -15.60633 -11.51714 -11.40609 -11.32132
 Alpha  occ. eigenvalues --  -11.31904 -11.28668 -11.27391 -11.27336 -11.27100
 Alpha  occ. eigenvalues --  -11.26239 -11.24377 -11.23105 -10.56916  -8.03860
 Alpha  occ. eigenvalues --   -8.03514  -8.03509  -1.73057  -1.63317  -1.62979
 Alpha  occ. eigenvalues --   -1.42454  -1.28619  -1.24579  -1.20729  -1.12888
 Alpha  occ. eigenvalues --   -1.08279  -1.07156  -1.01766  -0.96924  -0.94265
 Alpha  occ. eigenvalues --   -0.88680  -0.86648  -0.83438  -0.82747  -0.81821
 Alpha  occ. eigenvalues --   -0.81443  -0.79364  -0.76458  -0.71767  -0.70518
 Alpha  occ. eigenvalues --   -0.70510  -0.68260  -0.67578  -0.66978  -0.65614
 Alpha  occ. eigenvalues --   -0.65254  -0.64684  -0.64046  -0.63134  -0.62679
 Alpha  occ. eigenvalues --   -0.61696  -0.59458  -0.58293  -0.56861  -0.55304
 Alpha  occ. eigenvalues --   -0.54955  -0.54050  -0.52404  -0.50901  -0.49999
 Alpha  occ. eigenvalues --   -0.49329  -0.46277  -0.45697  -0.44737  -0.41481
 Alpha  occ. eigenvalues --   -0.37507  -0.32196
 Alpha virt. eigenvalues --    0.04332   0.06804   0.07723   0.08010   0.08200
 Alpha virt. eigenvalues --    0.08566   0.09119   0.09576   0.10273   0.10731
 Alpha virt. eigenvalues --    0.11297   0.11764   0.12264   0.12815   0.13145

 Mulliken charges:
               1
     1  C   -0.211678
     2  N   -0.824581
     3  C    0.680216
     4  O   -0.632682
     5  N   -0.664217
     6  C   -0.044695
     7  C   -0.280151
     8  C   -0.672471
     9  C    0.146719
    10  C   -0.923722
    11  C    0.427639
    12  C   -0.366779
    13  C   -0.577295
    14  H    0.457169
    15  H    0.416334
    16  H    0.225604
    17  H    0.202841
    18  H    0.179971
    19  H    0.207039
    20  H    0.197012
    21  H    0.199556
    22  H    0.198840
    23  H    0.348719
    24  C    1.663254
    25  Cl   0.310842
    26  H    0.265289
    27  H    0.233518
    28  F   -0.363316
    29  F   -0.361564
    30  F   -0.437409
 Sum of Mulliken charges =  -0.00000

 Dipole moment (field-independent basis, Debye):
    X=             -5.9976    Y=             -5.7809    Z=              1.1209  Tot=              8.4051
 Quadrupole moment (field-independent basis, Debye-Ang):
   XX=           -105.4599   YY=           -106.5439   ZZ=           -115.4787
   XY=              2.6394   XZ=             -3.8253   YZ=             -0.4902

 Normal termination of Gaussian 09 at Sat Nov 30 15:00:44 2019.
