 Gaussian 09, Revision E.01,
 Gaussian 09:  ES64L-G09RevE.01 30-Nov-2015

 -------------------------------------------------------------
 # MP2/Gen 5D SCF=Tight INT(grid=ultrafine) maxdisk=3489660928
 -------------------------------------------------------------

 -----------------
 29.MP2_GTMP2LARGE
 -----------------
 Symbolic Z-matrix:
 Charge =  0 Multiplicity = 1

                         Standard orientation:
 ---------------------------------------------------------------------
 Center     Atomic      Atomic             Coordinates (Angstroms)
 Number     Number       Type             X           Y           Z
 ---------------------------------------------------------------------
      1          6           0       -0.043779   -1.076731    0.050012
      2          7           0       -1.438586   -1.183420    0.118322
      3          6           0       -2.365756   -0.159453   -0.046859
      4          8           0       -2.067066    0.987772   -0.294225
      5          7           0       -3.666256   -0.586568    0.071236
      6          6           0       -4.734443    0.405301    0.044759
      7          6           0       -6.092696   -0.278412   -0.006634
      8          6           0       -7.229576    0.737961   -0.045082
      9          6           0        0.637585    0.143249    0.062497
     10          6           0        2.027585    0.163664    0.024641
     11          6           0        2.754342   -1.024771   -0.024468
     12          6           0        2.079134   -2.236889   -0.037557
     13          6           0        0.695430   -2.261256   -0.001850
     14          1           0       -1.798222   -2.125764    0.098877
     15          1           0       -3.842684   -1.415748    0.620320
     16          1           0       -4.584649    1.027900   -0.838666
     17          1           0       -4.668774    1.068090    0.915775
     18          1           0       -6.211233   -0.927000    0.869628
     19          1           0       -6.132463   -0.926189   -0.887358
     20          1           0       -7.215790    1.379632    0.839127
     21          1           0       -8.201383    0.243638   -0.082328
     22          1           0       -7.149379    1.382076   -0.923831
     23          1           0        0.085961    1.069799    0.091851
     24          6           0        2.732857    1.498232    0.041020
     25         17           0        4.491655   -1.041543   -0.072051
     26          1           0        2.643181   -3.160298   -0.078025
     27          1           0        0.183321   -3.218558   -0.013632
     28          9           0        3.540991    1.619797    1.103248
     29          9           0        3.484659    1.677743   -1.053129
     30          9           0        1.867716    2.517018    0.091787
 ---------------------------------------------------------------------

 SCF Done:  E(RHF) =  -1365.47078409     A.U. after   16 cycles
 E2 =    -0.3316351258D+01 EUMP2 =    -0.13687871353504D+04

 The electronic state is 1-A.
 Alpha  occ. eigenvalues -- -104.84765 -26.33235 -26.32842 -26.32830 -20.53116
 Alpha  occ. eigenvalues --  -15.61608 -15.59370 -11.50483 -11.39544 -11.31336
 Alpha  occ. eigenvalues --  -11.31114 -11.27841 -11.26844 -11.26462 -11.26243
 Alpha  occ. eigenvalues --  -11.25442 -11.23843 -11.22584 -10.57215  -8.03994
 Alpha  occ. eigenvalues --   -8.03821  -8.03814  -1.72475  -1.62792  -1.62488
 Alpha  occ. eigenvalues --   -1.41888  -1.28159  -1.24173  -1.20267  -1.12505
 Alpha  occ. eigenvalues --   -1.07864  -1.06830  -1.01375  -0.96589  -0.93953
 Alpha  occ. eigenvalues --   -0.88328  -0.86302  -0.83175  -0.82412  -0.81588
 Alpha  occ. eigenvalues --   -0.81140  -0.79009  -0.76076  -0.71436  -0.70370
 Alpha  occ. eigenvalues --   -0.70344  -0.67988  -0.67402  -0.66757  -0.65507
 Alpha  occ. eigenvalues --   -0.65055  -0.64407  -0.63991  -0.62977  -0.62453
 Alpha  occ. eigenvalues --   -0.61407  -0.59144  -0.58120  -0.56685  -0.55174
 Alpha  occ. eigenvalues --   -0.54659  -0.53728  -0.52175  -0.50797  -0.49811
 Alpha  occ. eigenvalues --   -0.49222  -0.46150  -0.45569  -0.44716  -0.41512
 Alpha  occ. eigenvalues --   -0.37387  -0.32071
 Alpha virt. eigenvalues --    0.02276   0.03742   0.04577   0.05247   0.05769
 Alpha virt. eigenvalues --    0.06327   0.07518   0.07753   0.08296   0.08402
 Alpha virt. eigenvalues --    0.08692   0.09388   0.09883   0.10225   0.10588

 Mulliken charges:
               1
     1  C   -0.071775
     2  N   -0.293112
     3  C    0.460238
     4  O   -0.517285
     5  N   -0.168914
     6  C   -0.282549
     7  C    0.354799
     8  C   -0.502043
     9  C   -0.130889
    10  C   -0.094836
    11  C   -0.001786
    12  C   -0.234324
    13  C   -0.195435
    14  H    0.199914
    15  H    0.182488
    16  H    0.103457
    17  H    0.103221
    18  H    0.016765
    19  H    0.062828
    20  H    0.058151
    21  H    0.083321
    22  H    0.064009
    23  H    0.259730
    24  C    1.305386
    25  Cl  -0.244576
    26  H    0.191520
    27  H    0.108007
    28  F   -0.247235
    29  F   -0.250899
    30  F   -0.318174
 Sum of Mulliken charges =  -0.00000

 Dipole moment (field-independent basis, Debye):
    X=             -5.9403    Y=             -5.6292    Z=              1.0727  Tot=              8.2539
 Quadrupole moment (field-independent basis, Debye-Ang):
   XX=           -104.4728   YY=           -106.2436   ZZ=           -114.5277
   XY=              2.5558   XZ=             -3.6478   YZ=             -0.4386

 Normal termination of Gaussian 09 at Sat Nov 30 16:02:05 2019.
