 Gaussian 09, Revision E.01,

 ----------------------------------------------------------------------
 # M062X/6-311+G* SCF=Tight INT(grid=ultrafine) OPT IOP(2/17=4) Empiric
 alDispersion=GD3 SCRF=(SMD,Solvent=n-Pentadecane) maxdisk=2147483648
 ----------------------------------------------------------------------

 -------------------------------------
 29.M062X_6-311pGd_opt_Pentadecane_GD3
 -------------------------------------
 Symbolic Z-matrix:
 Charge =  0 Multiplicity = 1

 SCF Done:  E(RM062X) =  -1370.81099008     A.U. after   15 cycles
 Optimization completed.
    -- Stationary point found.
 Normal termination of Gaussian 09 at Thu Nov 14 09:26:42 2019.
 Gaussian 09:  ES64L-G09RevE.01 30-Nov-2015

 ----------------------------------------------------------------------
 # M062X/6-311+G* SCF=Tight INT(grid=ultrafine) SCRF=(SMD,Solvent=n-Pen
 tadecane)EmpiricalDispersion=GD3 Freq=Noraman maxdisk=2147483648 geom=
 check guess=read IOP(2/17=4)
 ----------------------------------------------------------------------

 -------------------------------------
 29.M062X_6-311pGd_opt_Pentadecane_GD3
 -------------------------------------
 Structure from the checkpoint file:  "29.M062X_6-311pGd_opt_Pentadecane_GD3.chk"
 Charge =  0 Multiplicity = 1

                         Standard orientation:
 ---------------------------------------------------------------------
 Center     Atomic      Atomic             Coordinates (Angstroms)
 Number     Number       Type             X           Y           Z
 ---------------------------------------------------------------------
      1          6           0        0.050698   -1.063174    0.037397
      2          7           0        1.443550   -1.164498    0.085418
      3          6           0        2.370383   -0.134155   -0.016328
      4          8           0        2.064411    1.030724   -0.180875
      5          7           0        3.665913   -0.559663    0.061377
      6          6           0        4.751177    0.411693    0.093473
      7          6           0        6.091327   -0.287789   -0.078439
      8          6           0        7.247930    0.704527   -0.045097
      9          6           0       -0.640841    0.152053    0.043240
     10          6           0       -2.031492    0.161329    0.014884
     11          6           0       -2.749388   -1.032471   -0.018155
     12          6           0       -2.066208   -2.240154   -0.024401
     13          6           0       -0.682528   -2.253725    0.002165
     14          1           0        1.805831   -2.107434    0.087176
     15          1           0        3.856987   -1.471052    0.452983
     16          1           0        4.732951    0.978751    1.031574
     17          1           0        4.586642    1.125171   -0.715602
     18          1           0        6.088837   -0.834723   -1.026213
     19          1           0        6.221170   -1.030231    0.717761
     20          1           0        7.154516    1.444600   -0.843880
     21          1           0        8.206561    0.198274   -0.172204
     22          1           0        7.280180    1.243611    0.905160
     23          1           0       -0.095963    1.082561    0.064301
     24          6           0       -2.745768    1.489085    0.022804
     25         17           0       -4.490457   -1.059686   -0.053792
     26          1           0       -2.620936   -3.169858   -0.051748
     27          1           0       -0.163012   -3.206841   -0.004656
     28          9           0       -3.508362    1.656104   -1.068300
     29          9           0       -3.551808    1.618946    1.087827
     30          9           0       -1.891972    2.518489    0.058248
 ---------------------------------------------------------------------

 SCF Done:  E(RM062X) =  -1370.81099008     A.U. after    2 cycles

 The electronic state is 1-A.
 Alpha  occ. eigenvalues -- -102.68381 -25.27815 -25.27436 -25.27424 -19.59747
 Alpha  occ. eigenvalues --  -14.79750 -14.77585 -10.80551 -10.68525 -10.62149
 Alpha  occ. eigenvalues --  -10.61597 -10.58824 -10.57353 -10.57100 -10.56934
 Alpha  occ. eigenvalues --  -10.56462 -10.54268 -10.52850  -9.82657  -7.55177
 Alpha  occ. eigenvalues --   -7.54486  -7.54478  -1.47119  -1.37688  -1.37374
 Alpha  occ. eigenvalues --   -1.19131  -1.07419  -1.04068  -1.01285  -0.94851
 Alpha  occ. eigenvalues --   -0.90352  -0.88963  -0.84804  -0.81469  -0.78334
 Alpha  occ. eigenvalues --   -0.74533  -0.72562  -0.69878  -0.69409  -0.69361
 Alpha  occ. eigenvalues --   -0.68525  -0.66581  -0.64231  -0.60024  -0.57724
 Alpha  occ. eigenvalues --   -0.57594  -0.57466  -0.56551  -0.55547  -0.54189
 Alpha  occ. eigenvalues --   -0.53577  -0.53351  -0.52965  -0.51578  -0.51225
 Alpha  occ. eigenvalues --   -0.51056  -0.49148  -0.48957  -0.47680  -0.46366
 Alpha  occ. eigenvalues --   -0.45948  -0.44307  -0.43225  -0.42937  -0.41044
 Alpha  occ. eigenvalues --   -0.40342  -0.38565  -0.37515  -0.35896  -0.33851
 Alpha  occ. eigenvalues --   -0.33082  -0.28072
 Alpha virt. eigenvalues --   -0.01248  -0.00432   0.00140   0.01683   0.02192
 Alpha virt. eigenvalues --    0.02800   0.03154   0.03357   0.04543   0.04693
 Alpha virt. eigenvalues --    0.05178   0.05515   0.06504   0.06757   0.06858

 Mulliken charges:
               1
     1  C   -0.858324
     2  N   -0.362811
     3  C    0.093956
     4  O   -0.361555
     5  N   -0.310398
     6  C   -0.535079
     7  C   -0.116955
     8  C   -1.044682
     9  C   -0.010866
    10  C   -1.073373
    11  C    1.066008
    12  C   -0.461218
    13  C   -0.319338
    14  H    0.366774
    15  H    0.354401
    16  H    0.268716
    17  H    0.273027
    18  H    0.265780
    19  H    0.240319
    20  H    0.266618
    21  H    0.273019
    22  H    0.264255
    23  H    0.338048
    24  C    0.625088
    25  Cl   0.419524
    26  H    0.294105
    27  H    0.258453
    28  F   -0.042515
    29  F   -0.042507
    30  F   -0.128473
 Sum of Mulliken charges =  -0.00000

 Dipole moment (field-independent basis, Debye):
    X=              6.8677    Y=             -6.5544    Z=              0.9123  Tot=              9.5371
 Quadrupole moment (field-independent basis, Debye-Ang):
   XX=           -102.3793   YY=           -104.6158   ZZ=           -115.3279
   XY=             -3.6122   XZ=              3.1407   YZ=             -0.7023

  Exact polarizability: 260.389   7.398 174.063   2.214  -0.268 110.782
 Approx polarizability: 236.051   1.394 200.349   2.395  -1.162 132.586

                      1                      2                      3
                      A                      A                      A
 Frequencies --     19.1089                26.9857                52.3232
 Red. masses --      5.8141                 3.3473                 6.2385
 Frc consts  --      0.0013                 0.0014                 0.0101
 IR Inten    --      1.2776                 6.1582                 2.9364

                      4                      5                      6
                      A                      A                      A
 Frequencies --     55.0880                63.1027                76.4569
 Red. masses --      4.4820                 3.9659                 3.2065
 Frc consts  --      0.0080                 0.0093                 0.0110
 IR Inten    --      1.3368                 4.3734                 1.2951

                      7                      8                      9
                      A                      A                      A
 Frequencies --    110.2207               124.9234               145.6866
 Red. masses --      5.1279                 6.1422                 7.1830
 Frc consts  --      0.0367                 0.0565                 0.0898
 IR Inten    --      0.1571                 3.7430                 0.1337

                     10                     11                     12
                      A                      A                      A
 Frequencies --    172.0621               191.2882               227.6937
 Red. masses --      9.2739                 3.3350                 6.0493
 Frc consts  --      0.1618                 0.0719                 0.1848
 IR Inten    --      4.3887                 1.0615                 0.5356

                     13                     14                     15
                      A                      A                      A
 Frequencies --    241.2390               252.9017               307.8682
 Red. masses --      1.1539                 4.9359                 8.8076
 Frc consts  --      0.0396                 0.1860                 0.4919
 IR Inten    --      0.0458                12.2847                 5.7281

                     16                     17                     18
                      A                      A                      A
 Frequencies --    309.8004               325.7727               345.5542
 Red. masses --      3.0262                 2.1123                 4.2331
 Frc consts  --      0.1711                 0.1321                 0.2978
 IR Inten    --     15.7373                68.3246                 4.1107

                     19                     20                     21
                      A                      A                      A
 Frequencies --    350.8048               380.2455               420.3047
 Red. masses --      3.8787                 8.5970                 4.8927
 Frc consts  --      0.2812                 0.7324                 0.5092
 IR Inten    --      6.5775                 3.3915                12.5651

                     22                     23                     24
                      A                      A                      A
 Frequencies --    459.8826               463.9095               508.0771
 Red. masses --      6.4721                 3.8874                 1.2460
 Frc consts  --      0.8065                 0.4929                 0.1895
 IR Inten    --      4.3438                 6.0772               150.0501

                     25                     26                     27
                      A                      A                      A
 Frequencies --    530.9072               542.6083               599.4370
 Red. masses --      5.3222                 7.3133                 8.8569
 Frc consts  --      0.8839                 1.2686                 1.8751
 IR Inten    --     35.6585                16.0014                 3.4745

                     28                     29                     30
                      A                      A                      A
 Frequencies --    649.7481               674.9976               708.8750
 Red. masses --      4.6098                 8.5543                 7.0703
 Frc consts  --      1.1466                 2.2963                 2.0933
 IR Inten    --      5.4268                28.3417                10.5852

                     31                     32                     33
                      A                      A                      A
 Frequencies --    744.2289               757.2136               774.6935
 Red. masses --      4.8428                 1.2105                 6.1172
 Frc consts  --      1.5804                 0.4089                 2.1630
 IR Inten    --      1.0831                 9.8040                 4.1806

                     34                     35                     36
                      A                      A                      A
 Frequencies --    778.6162               798.6715               839.8871
 Red. masses --      6.6304                 6.2528                 1.4545
 Frc consts  --      2.3683                 2.3499                 0.6045
 IR Inten    --      8.3223                15.8337                47.7133

                     37                     38                     39
                      A                      A                      A
 Frequencies --    902.9802               928.4321               938.0540
 Red. masses --      1.1824                 1.9076                 1.4401
 Frc consts  --      0.5680                 0.9688                 0.7466
 IR Inten    --      2.7359                 1.5205                27.4254

                     40                     41                     42
                      A                      A                      A
 Frequencies --    953.3250               974.4059              1046.3345
 Red. masses --      4.3249                 1.3352                 4.2421
 Frc consts  --      2.3158                 0.7469                 2.7364
 IR Inten    --     27.4328                 2.3030                 1.5659

                     43                     44                     45
                      A                      A                      A
 Frequencies --   1050.4495              1078.9539              1146.2888
 Red. masses --      5.6144                 2.5694                 3.1530
 Frc consts  --      3.6501                 1.7623                 2.4409
 IR Inten    --     33.0053                 6.0953                31.1815

                     46                     47                     48
                      A                      A                      A
 Frequencies --   1153.8798              1166.0419              1181.6970
 Red. masses --      2.3335                 2.4877                 1.7615
 Frc consts  --      1.8306                 1.9928                 1.4493
 IR Inten    --     72.0983                 4.5253                 2.5703

                     49                     50                     51
                      A                      A                      A
 Frequencies --   1186.3562              1187.4527              1221.9158
 Red. masses --      4.9548                 2.7150                 2.7940
 Frc consts  --      4.1087                 2.2556                 2.4579
 IR Inten    --    236.8539               121.9782               405.6419

                     52                     53                     54
                      A                      A                      A
 Frequencies --   1244.4967              1277.2771              1286.6463
 Red. masses --      1.9108                 2.4502                 1.3324
 Frc consts  --      1.7436                 2.3551                 1.2996
 IR Inten    --    268.8443                 6.1064                90.4080

                     55                     56                     57
                      A                      A                      A
 Frequencies --   1301.9736              1312.9506              1331.0983
 Red. masses --      2.5837                 1.9722                 1.1756
 Frc consts  --      2.5805                 2.0030                 1.2272
 IR Inten    --    200.8832                82.7640                43.5808

                     58                     59                     60
                      A                      A                      A
 Frequencies --   1350.3048              1374.1034              1423.6597
 Red. masses --      1.3164                 3.9162                 1.5285
 Frc consts  --      1.4142                 4.3566                 1.8253
 IR Inten    --     19.4804               211.3940                 0.5603

                     61                     62                     63
                      A                      A                      A
 Frequencies --   1431.5611              1473.3117              1503.2330
 Red. masses --      1.3162                 5.2126                 1.0613
 Frc consts  --      1.5892                 6.6664                 1.4131
 IR Inten    --      2.3737               374.5282                 6.1868

                     64                     65                     66
                      A                      A                      A
 Frequencies --   1517.4445              1519.8635              1532.9808
 Red. masses --      1.0428                 1.0675                 1.2999
 Frc consts  --      1.4148                 1.4528                 1.7998
 IR Inten    --     15.4693                 3.8870               112.6789

                     67                     68                     69
                      A                      A                      A
 Frequencies --   1534.8243              1557.9632              1595.5631
 Red. masses --      1.7097                 1.9414                 2.2053
 Frc consts  --      2.3730                 2.7764                 3.3078
 IR Inten    --    303.3568               248.6350               760.9242

                     70                     71                     72
                      A                      A                      A
 Frequencies --   1663.7861              1686.5285              1798.9509
 Red. masses --      5.1425                 5.7513                 7.6107
 Frc consts  --      8.3872                 9.6384                14.5115
 IR Inten    --    117.5067                 4.3158               374.9849

                     73                     74                     75
                      A                      A                      A
 Frequencies --   3054.9083              3058.6675              3070.8690
 Red. masses --      1.0672                 1.0669                 1.0371
 Frc consts  --      5.8681                 5.8807                 5.7624
 IR Inten    --     16.6717                44.2816                34.7955

                     76                     77                     78
                      A                      A                      A
 Frequencies --   3098.9373              3133.1868              3141.7325
 Red. masses --      1.0977                 1.0981                 1.1021
 Frc consts  --      6.2107                 6.3511                 6.4095
 IR Inten    --     15.3619                 1.0768                59.8708

                     79                     80                     81
                      A                      A                      A
 Frequencies --   3147.0897              3203.7337              3242.6414
 Red. masses --      1.1022                 1.0910                 1.0943
 Frc consts  --      6.4315                 6.5979                 6.7791
 IR Inten    --     31.8827                 8.4071                 0.1695

                     82                     83                     84
                      A                      A                      A
 Frequencies --   3292.1672              3633.9740              3644.6463
 Red. masses --      1.0916                 1.0776                 1.0774
 Frc consts  --      6.9710                 8.3843                 8.4319
 IR Inten    --     24.7421                 6.8902                86.2501

 - Thermochemistry -
 -------------------
 Temperature   298.150 Kelvin.  Pressure   1.00000 Atm.
 Atom     1 has atomic number  6 and mass  12.00000

 Molecular mass:   280.05903 amu.
 Principal axes and moments of inertia in atomic units:
                           1         2         3
     Eigenvalues --  2041.21232********************
           X            0.99996   0.00923   0.00029
           Y           -0.00923   0.99996  -0.00128
           Z           -0.00031   0.00128   1.00000
 This molecule is an asymmetric top.
 Rotational symmetry number  1.
 Warning -- assumption of classical behavior for rotation
           may cause significant error
 Rotational temperatures (Kelvin)      0.04243     0.00675     0.00597
 Rotational constants (GHZ):           0.88415     0.14060     0.12430
 Zero-point vibrational energy     595673.5 (Joules/Mol)
                                  142.36937 (Kcal/Mol)
 Warning -- explicit consideration of  27 degrees of freedom as
           vibrations may cause significant error
 Vibrational temperatures:     27.49    38.83    75.28    79.26    90.79
          (Kelvin)            110.00   158.58   179.74   209.61   247.56
                              275.22   327.60   347.09   363.87   442.95
                              445.73   468.71   497.17   504.73   547.09
                              604.72   661.67   667.46   731.01   763.86
                              780.69   862.46   934.84   971.17  1019.91
                             1070.78  1089.46  1114.61  1120.25  1149.11
                             1208.41  1299.19  1335.81  1349.65  1371.62
                             1401.95  1505.44  1511.36  1552.37  1649.25
                             1660.17  1677.67  1700.20  1706.90  1708.48
                             1758.06  1790.55  1837.71  1851.19  1873.25
                             1889.04  1915.15  1942.78  1977.03  2048.33
                             2059.69  2119.76  2162.81  2183.26  2186.74
                             2205.61  2208.27  2241.56  2295.66  2393.81
                             2426.54  2588.29  4395.33  4400.73  4418.29
                             4458.67  4507.95  4520.25  4527.95  4609.45
                             4665.43  4736.69  5228.47  5243.83

 Zero-point correction=                           0.226880 (Hartree/Particle)
 Thermal correction to Energy=                    0.244775
 Thermal correction to Enthalpy=                  0.245719
 Thermal correction to Gibbs Free Energy=         0.178029
 Sum of electronic and zero-point Energies=          -1370.584110
 Sum of electronic and thermal Energies=             -1370.566215
 Sum of electronic and thermal Enthalpies=           -1370.565271
 Sum of electronic and thermal Free Energies=        -1370.632961

                     E (Thermal)             CV                S
                      KCal/Mol        Cal/Mol-Kelvin    Cal/Mol-Kelvin
 Total                  153.599             64.415            142.466
 Electronic               0.000              0.000              0.000
 Translational            0.889              2.981             42.788
 Rotational               0.889              2.981             34.297
 Vibrational            151.821             58.454             65.381
 Vibration     1          0.593              1.986              6.725
 Vibration     2          0.593              1.984              6.040
 Vibration     3          0.596              1.977              4.728
 Vibration     4          0.596              1.976              4.626
 Vibration     5          0.597              1.972              4.358
 Vibration     6          0.599              1.965              3.980
 Vibration     7          0.606              1.941              3.265
 Vibration     8          0.610              1.928              3.023
 Vibration     9          0.617              1.907              2.728
 Vibration    10          0.626              1.877              2.413
 Vibration    11          0.634              1.852              2.215
 Vibration    12          0.651              1.799              1.897
 Vibration    13          0.658              1.777              1.794
 Vibration    14          0.664              1.758              1.710
 Vibration    15          0.698              1.659              1.374
 Vibration    16          0.699              1.655              1.363
 Vibration    17          0.710              1.624              1.281
 Vibration    18          0.724              1.584              1.186
 Vibration    19          0.728              1.574              1.163
 Vibration    20          0.750              1.512              1.038
 Vibration    21          0.783              1.426              0.891
 Vibration    22          0.818              1.339              0.766
 Vibration    23          0.821              1.330              0.755
 Vibration    24          0.863              1.232              0.638
 Vibration    25          0.886              1.182              0.585
 Vibration    26          0.898              1.156              0.560
 Vibration    27          0.958              1.033              0.451

 Optimization completed.
    -- Stationary point found.
 Normal termination of Gaussian 09 at Thu Nov 14 10:34:19 2019.
