 Gaussian 09, Revision E.01,
 Gaussian 09:  ES64L-G09RevE.01 30-Nov-2015

 -------------------------------------------------------------
 # MP2/Gen 5D SCF=Tight INT(grid=ultrafine) maxdisk=3489660928
 -------------------------------------------------------------

 --------------------
 29_c2.MP2_GTMP2LARGE
 --------------------
 Symbolic Z-matrix:
 Charge =  0 Multiplicity = 1

                         Standard orientation:
 ---------------------------------------------------------------------
 Center     Atomic      Atomic             Coordinates (Angstroms)
 Number     Number       Type             X           Y           Z
 ---------------------------------------------------------------------
      1          6           0       -0.308088   -0.010725   -0.195639
      2          7           0       -1.551182   -0.654679   -0.247698
      3          6           0       -2.780233   -0.080096   -0.552322
      4          8           0       -2.922276    1.095881   -0.811976
      5          7           0       -3.812117   -0.984202   -0.548980
      6          6           0       -5.190707   -0.538572   -0.701145
      7          6           0       -5.907339   -0.331645    0.632884
      8          6           0       -5.241124    0.723449    1.510767
      9          6           0        0.824043   -0.820186   -0.070895
     10          6           0        2.095717   -0.272804    0.014512
     11          6           0        2.251788    1.112057   -0.028337
     12          6           0        1.131329    1.919671   -0.153384
     13          6           0       -0.143622    1.376515   -0.235678
     14          1           0       -5.720400   -1.273400   -1.312006
     15          1           0       -5.153677    0.395061   -1.262781
     16          1           0       -5.960841   -1.287212    1.167940
     17          1           0       -6.941448   -0.044445    0.417815
     18          1           0       -4.222594    0.432949    1.779574
     19          1           0       -5.798282    0.869560    2.437890
     20          1           0       -5.177771    1.682013    0.992085
     21          1           0        0.716195   -1.898434   -0.038325
     22          6           0        3.282953   -1.191525    0.150695
     23         17           0        3.818260    1.857773    0.070641
     24          1           0        1.259199    2.994665   -0.186777
     25          1           0       -1.002715    2.021006   -0.338329
     26          9           0        2.907330   -2.480769    0.171059
     27          9           0        4.142736   -1.055402   -0.865406
     28          9           0        3.961965   -0.969203    1.282233
     29          1           0       -3.670693   -1.875354   -0.096918
     30          1           0       -1.512688   -1.661904   -0.208234
 ---------------------------------------------------------------------

 SCF Done:  E(RHF) =  -1365.46990225     A.U. after   16 cycles
 E2 =    -0.3319127537D+01 EUMP2 =    -0.13687890297856D+04

 The electronic state is 1-A.
 Alpha  occ. eigenvalues -- -104.84861 -26.34205 -26.33583 -26.33576 -20.52991
 Alpha  occ. eigenvalues --  -15.61717 -15.59532 -11.51284 -11.39797 -11.31395
 Alpha  occ. eigenvalues --  -11.31166 -11.28271 -11.26934 -11.26636 -11.26083
 Alpha  occ. eigenvalues --  -11.25138 -11.23228 -11.21561 -10.57310  -8.04089
 Alpha  occ. eigenvalues --   -8.03916  -8.03909  -1.73265  -1.63622  -1.63265
 Alpha  occ. eigenvalues --   -1.41888  -1.28247  -1.24290  -1.20395  -1.12642
 Alpha  occ. eigenvalues --   -1.07877  -1.06089  -1.01598  -0.96792  -0.94285
 Alpha  occ. eigenvalues --   -0.88593  -0.86533  -0.84228  -0.82361  -0.82131
 Alpha  occ. eigenvalues --   -0.81283  -0.78897  -0.76817  -0.71773  -0.71190
 Alpha  occ. eigenvalues --   -0.70901  -0.68049  -0.67100  -0.66324  -0.66107
 Alpha  occ. eigenvalues --   -0.65851  -0.64791  -0.64450  -0.62432  -0.62199
 Alpha  occ. eigenvalues --   -0.61121  -0.59696  -0.59095  -0.56068  -0.55387
 Alpha  occ. eigenvalues --   -0.54768  -0.53715  -0.51840  -0.50436  -0.49751
 Alpha  occ. eigenvalues --   -0.49045  -0.46309  -0.45434  -0.44836  -0.41043
 Alpha  occ. eigenvalues --   -0.37345  -0.32152
 Alpha virt. eigenvalues --    0.02442   0.04223   0.04656   0.05094   0.05811
 Alpha virt. eigenvalues --    0.06627   0.07556   0.07760   0.08222   0.08451
 Alpha virt. eigenvalues --    0.08757   0.09102   0.09417   0.09908   0.11200

 Mulliken charges:
               1
     1  C    0.173774
     2  N   -0.260297
     3  C    0.313429
     4  O   -0.508254
     5  N   -0.175535
     6  C   -0.104026
     7  C   -0.049279
     8  C   -0.205736
     9  C   -0.487948
    10  C   -0.483263
    11  C   -0.015282
    12  C   -0.063077
    13  C   -0.172275
    14  H    0.084026
    15  H    0.127036
    16  H    0.042481
    17  H    0.049137
    18  H    0.077286
    19  H    0.089042
    20  H    0.061201
    21  H    0.143804
    22  C    1.625633
    23  Cl  -0.248486
    24  H    0.195543
    25  H    0.234448
    26  F   -0.328047
    27  F   -0.242649
    28  F   -0.245187
    29  H    0.170050
    30  H    0.202451
 Sum of Mulliken charges =  -0.00000

 Dipole moment (field-independent basis, Debye):
    X=             -5.1427    Y=             -2.7008    Z=              0.6459  Tot=              5.8446
 Quadrupole moment (field-independent basis, Debye-Ang):
   XX=           -114.2370   YY=           -106.4533   ZZ=           -116.5042
   XY=             13.0213   XZ=             -3.0382   YZ=              1.0784

 Normal termination of Gaussian 09 at Fri Dec 13 11:49:41 2019.
