 Gaussian 09, Revision E.01,

 ----------------------------------------------------------------------
 # M062X/6-311+G* SCF=Tight INT(grid=ultrafine) OPT=CalcFC IOP(2/17=4)
 EmpiricalDispersion=GD3 maxdisk=2147483648
 ----------------------------------------------------------------------

 ----------------------------
 29_c2.M062X_6-311pGd_opt_GD3
 ----------------------------
 Symbolic Z-matrix:
 Charge =  0 Multiplicity = 1

 SCF Done:  E(RM062X) =  -1370.69495026     A.U. after   16 cycles
 SCF Done:  E(RM062X) =  -1370.74191186     A.U. after   14 cycles
 SCF Done:  E(RM062X) =  -1370.74180681     A.U. after   17 cycles
 SCF Done:  E(RM062X) =  -1370.77572402     A.U. after   13 cycles
 SCF Done:  E(RM062X) =  -1370.78052342     A.U. after   14 cycles
 SCF Done:  E(RM062X) =  -1370.78062610     A.U. after   16 cycles
 SCF Done:  E(RM062X) =  -1370.78304380     A.U. after   17 cycles
 SCF Done:  E(RM062X) =  -1370.78477502     A.U. after   14 cycles
 SCF Done:  E(RM062X) =  -1370.72994100     A.U. after   14 cycles
 SCF Done:  E(RM062X) =  -1370.78478434     A.U. after   10 cycles
 SCF Done:  E(RM062X) =  -1370.79678568     A.U. after   12 cycles
 SCF Done:  E(RM062X) =  -1370.79678860     A.U. after   11 cycles
 SCF Done:  E(RM062X) =  -1370.79678965     A.U. after   11 cycles
 SCF Done:  E(RM062X) =  -1370.79679020     A.U. after   10 cycles
 SCF Done:  E(RM062X) =  -1370.79679094     A.U. after   10 cycles
 SCF Done:  E(RM062X) =  -1370.79679144     A.U. after   10 cycles
 SCF Done:  E(RM062X) =  -1370.79679203     A.U. after   10 cycles
 SCF Done:  E(RM062X) =  -1370.79679290     A.U. after   11 cycles
 SCF Done:  E(RM062X) =  -1370.79679326     A.U. after   10 cycles
 Optimization completed.
    -- Stationary point found.
 Normal termination of Gaussian 09 at Thu Dec 12 19:21:30 2019.
 Gaussian 09:  ES64L-G09RevE.01 30-Nov-2015

 ----------------------------------------------------------------------
 # M062X/6-311+G* SCF=Tight INT(grid=ultrafine) EmpiricalDispersion=GD3
  Freq=Noraman maxdisk=2147483648 geom=check guess=read IOP(2/17=4)
 ----------------------------------------------------------------------

 ----------------------------
 29_c2.M062X_6-311pGd_opt_GD3
 ----------------------------
 Structure from the checkpoint file:  "29_c2.M062X_6-311pGd_opt_GD3.chk"
 Charge =  0 Multiplicity = 1

                         Standard orientation:
 ---------------------------------------------------------------------
 Center     Atomic      Atomic             Coordinates (Angstroms)
 Number     Number       Type             X           Y           Z
 ---------------------------------------------------------------------
      1          6           0       -0.308088   -0.010725   -0.195639
      2          7           0       -1.551182   -0.654679   -0.247698
      3          6           0       -2.780233   -0.080096   -0.552322
      4          8           0       -2.922276    1.095881   -0.811976
      5          7           0       -3.812117   -0.984202   -0.548980
      6          6           0       -5.190707   -0.538572   -0.701145
      7          6           0       -5.907339   -0.331645    0.632884
      8          6           0       -5.241124    0.723449    1.510767
      9          6           0        0.824043   -0.820186   -0.070895
     10          6           0        2.095717   -0.272804    0.014512
     11          6           0        2.251788    1.112057   -0.028337
     12          6           0        1.131329    1.919671   -0.153384
     13          6           0       -0.143622    1.376515   -0.235678
     14          1           0       -5.720400   -1.273400   -1.312006
     15          1           0       -5.153677    0.395061   -1.262781
     16          1           0       -5.960841   -1.287212    1.167940
     17          1           0       -6.941448   -0.044445    0.417815
     18          1           0       -4.222594    0.432949    1.779574
     19          1           0       -5.798282    0.869560    2.437890
     20          1           0       -5.177771    1.682013    0.992085
     21          1           0        0.716195   -1.898434   -0.038325
     22          6           0        3.282953   -1.191525    0.150695
     23         17           0        3.818260    1.857773    0.070641
     24          1           0        1.259199    2.994665   -0.186777
     25          1           0       -1.002715    2.021006   -0.338329
     26          9           0        2.907330   -2.480769    0.171059
     27          9           0        4.142736   -1.055402   -0.865406
     28          9           0        3.961965   -0.969203    1.282233
     29          1           0       -3.670693   -1.875354   -0.096918
     30          1           0       -1.512688   -1.661904   -0.208234
 ---------------------------------------------------------------------

 SCF Done:  E(RM062X) =  -1370.79679326     A.U. after    2 cycles

 The electronic state is 1-A.
 Alpha  occ. eigenvalues -- -102.68388 -25.28352 -25.27731 -25.27724 -19.60452
 Alpha  occ. eigenvalues --  -14.80663 -14.78664 -10.81006 -10.69438 -10.62410
 Alpha  occ. eigenvalues --  -10.62068 -10.59385 -10.58348 -10.57921 -10.57181
 Alpha  occ. eigenvalues --  -10.56465 -10.54732 -10.52902  -9.82663  -7.55186
 Alpha  occ. eigenvalues --   -7.54489  -7.54480  -1.47513  -1.38114  -1.37761
 Alpha  occ. eigenvalues --   -1.19976  -1.08244  -1.04941  -1.01646  -0.95219
 Alpha  occ. eigenvalues --   -0.90622  -0.89149  -0.85392  -0.81608  -0.79307
 Alpha  occ. eigenvalues --   -0.74954  -0.73190  -0.71324  -0.69750  -0.69599
 Alpha  occ. eigenvalues --   -0.68981  -0.66819  -0.65712  -0.60482  -0.58113
 Alpha  occ. eigenvalues --   -0.57970  -0.57819  -0.56393  -0.56069  -0.55409
 Alpha  occ. eigenvalues --   -0.53786  -0.53618  -0.52625  -0.52128  -0.51711
 Alpha  occ. eigenvalues --   -0.51560  -0.50641  -0.49335  -0.48446  -0.46883
 Alpha  occ. eigenvalues --   -0.46246  -0.44702  -0.43876  -0.42829  -0.41922
 Alpha  occ. eigenvalues --   -0.41032  -0.38632  -0.37880  -0.36536  -0.34300
 Alpha  occ. eigenvalues --   -0.33524  -0.28613
 Alpha virt. eigenvalues --   -0.01461  -0.01333  -0.00463   0.01293   0.01717
 Alpha virt. eigenvalues --    0.02106   0.02805   0.03150   0.03700   0.04386
 Alpha virt. eigenvalues --    0.04945   0.05236   0.06197   0.06319   0.06513

 Mulliken charges:
               1
     1  C   -0.073895
     2  N   -0.389049
     3  C   -0.018843
     4  O   -0.321120
     5  N   -0.269104
     6  C   -0.288614
     7  C   -0.532640
     8  C   -0.841974
     9  C   -0.565946
    10  C   -1.225234
    11  C    0.618461
    12  C   -0.526513
    13  C    0.178478
    14  H    0.258904
    15  H    0.292951
    16  H    0.258522
    17  H    0.266849
    18  H    0.280699
    19  H    0.266496
    20  H    0.281008
    21  H    0.266083
    22  C    0.562799
    23  Cl   0.469809
    24  H    0.278492
    25  H    0.311385
    26  F   -0.143390
    27  F   -0.026309
    28  F   -0.028083
    29  H    0.318605
    30  H    0.341175
 Sum of Mulliken charges =  -0.00000

 Dipole moment (field-independent basis, Debye):
    X=             -5.1693    Y=             -2.5544    Z=              0.6493  Tot=              5.8024
 Quadrupole moment (field-independent basis, Debye-Ang):
   XX=           -112.3760   YY=           -106.0210   ZZ=           -116.7469
   XY=             13.0160   XZ=             -2.9972   YZ=              0.9923

  Exact polarizability: 227.010  16.377 152.807   5.160  -0.108 104.701
 Approx polarizability: 230.049  14.340 206.509   8.432  -4.791 133.975

                      1                      2                      3
                      A                      A                      A
 Frequencies --     10.2209                25.7023                49.5960
 Red. masses --      4.5858                 5.3445                 8.0299
 Frc consts  --      0.0003                 0.0021                 0.0116
 IR Inten    --      1.6144                 0.9902                 1.6378

                      4                      5                      6
                      A                      A                      A
 Frequencies --     61.5015                83.6570                95.4808
 Red. masses --      6.6646                 6.2721                 3.6166
 Frc consts  --      0.0149                 0.0259                 0.0194
 IR Inten    --      2.8345                 8.6255                 2.8572

                      7                      8                      9
                      A                      A                      A
 Frequencies --    110.7750               128.9200               147.8043
 Red. masses --      4.3845                 2.9365                 5.2695
 Frc consts  --      0.0317                 0.0288                 0.0678
 IR Inten    --      0.4977                 1.0049                 0.2505

                     10                     11                     12
                      A                      A                      A
 Frequencies --    159.8379               218.8617               249.3440
 Red. masses --      9.5486                 5.5645                 3.1614
 Frc consts  --      0.1437                 0.1570                 0.1158
 IR Inten    --      0.3841                 0.3433                 1.2263

                     13                     14                     15
                      A                      A                      A
 Frequencies --    254.7643               299.3885               306.1887
 Red. masses --      1.5224                 2.5772                 5.3401
 Frc consts  --      0.0582                 0.1361                 0.2950
 IR Inten    --      0.3693                19.8955                 4.4098

                     16                     17                     18
                      A                      A                      A
 Frequencies --    310.9462               329.7312               349.9201
 Red. masses --     12.5456                 1.6388                 4.3679
 Frc consts  --      0.7147                 0.1050                 0.3151
 IR Inten    --      2.5802                24.2147                 0.5240

                     19                     20                     21
                      A                      A                      A
 Frequencies --    362.0917               391.4723               453.4954
 Red. masses --      3.9187                 3.9444                 6.1737
 Frc consts  --      0.3027                 0.3562                 0.7481
 IR Inten    --      1.2321                13.9045                11.2410

                     22                     23                     24
                      A                      A                      A
 Frequencies --    464.6769               486.5379               503.5576
 Red. masses --      3.7865                 3.5529                 1.3212
 Frc consts  --      0.4817                 0.4955                 0.1974
 IR Inten    --      0.4591                26.2767               149.6302

                     25                     26                     27
                      A                      A                      A
 Frequencies --    526.6240               542.6385               599.4016
 Red. masses --      3.4406                 7.5346                 8.6590
 Frc consts  --      0.5622                 1.3072                 1.8330
 IR Inten    --      5.4723                10.4195                 1.4008

                     28                     29                     30
                      A                      A                      A
 Frequencies --    649.6944               673.1391               705.6044
 Red. masses --      5.0634                 7.7147                 5.4820
 Frc consts  --      1.2593                 2.0596                 1.6081
 IR Inten    --      1.4229                14.6798                 5.9342

                     31                     32                     33
                      A                      A                      A
 Frequencies --    738.8223               752.5641               770.7295
 Red. masses --      4.2997                 4.8746                 7.6166
 Frc consts  --      1.3828                 1.6266                 2.6657
 IR Inten    --      3.6798                 6.2155                13.7180

                     34                     35                     36
                      A                      A                      A
 Frequencies --    789.1524               800.1390               862.2603
 Red. masses --      1.8651                 2.7452                 1.3791
 Frc consts  --      0.6843                 1.0355                 0.6041
 IR Inten    --      1.2222                11.9811                30.9051

                     37                     38                     39
                      A                      A                      A
 Frequencies --    877.6379               901.3346               908.5937
 Red. masses --      2.8148                 1.5670                 2.0307
 Frc consts  --      1.2774                 0.7501                 0.9877
 IR Inten    --      1.2342                29.9113                 1.6633

                     40                     41                     42
                      A                      A                      A
 Frequencies --    939.9364               999.2146              1003.3211
 Red. masses --      2.5123                 1.3512                 2.2096
 Frc consts  --      1.3077                 0.7948                 1.3105
 IR Inten    --     16.1490                 0.3962                 4.1627

                     43                     44                     45
                      A                      A                      A
 Frequencies --   1052.5886              1062.0773              1114.0049
 Red. masses --      5.5572                 2.2580                 2.2382
 Frc consts  --      3.6276                 1.5007                 1.6365
 IR Inten    --     37.4606                12.8030                 2.7877

                     46                     47                     48
                      A                      A                      A
 Frequencies --   1153.9244              1165.9855              1176.4766
 Red. masses --      3.7000                 2.5843                 1.8647
 Frc consts  --      2.9027                 2.0700                 1.5206
 IR Inten    --     89.8355                10.4360                 8.9678

                     49                     50                     51
                      A                      A                      A
 Frequencies --   1179.1787              1217.4973              1226.8103
 Red. masses --      1.5734                12.9882                 3.7276
 Frc consts  --      1.2890                11.3432                 3.3055
 IR Inten    --     14.3193               274.2498               426.2673

                     52                     53                     54
                      A                      A                      A
 Frequencies --   1234.9435              1274.4245              1300.7329
 Red. masses --      1.9676                 3.0284                 1.4447
 Frc consts  --      1.7680                 2.8979                 1.4401
 IR Inten    --    165.8724               108.1499               130.1981

                     55                     56                     57
                      A                      A                      A
 Frequencies --   1306.2451              1322.5710              1338.9717
 Red. masses --      1.4910                 1.2404                 3.9267
 Frc consts  --      1.4989                 1.2783                 4.1478
 IR Inten    --     23.7663                 9.9513                62.3113

                     58                     59                     60
                      A                      A                      A
 Frequencies --   1369.7840              1390.1017              1408.7914
 Red. masses --      3.5819                 1.3514                 1.3473
 Frc consts  --      3.9598                 1.5387                 1.5755
 IR Inten    --    345.3646                 8.3024                 0.5258

                     61                     62                     63
                      A                      A                      A
 Frequencies --   1438.5620              1454.3494              1497.8141
 Red. masses --      1.2970                 3.1567                 1.0758
 Frc consts  --      1.5814                 3.9339                 1.4220
 IR Inten    --      4.6716                 6.0366                18.8070

                     64                     65                     66
                      A                      A                      A
 Frequencies --   1500.8319              1517.0715              1526.0536
 Red. masses --      1.0745                 1.0658                 1.0509
 Frc consts  --      1.4261                 1.4452                 1.4420
 IR Inten    --      3.8156                21.8848                26.6176

                     67                     68                     69
                      A                      A                      A
 Frequencies --   1545.4429              1566.8875              1590.4569
 Red. masses --      3.0961                 1.7028                 2.3282
 Frc consts  --      4.3569                 2.4631                 3.4698
 IR Inten    --    325.2557                86.2520               892.4358

                     70                     71                     72
                      A                      A                      A
 Frequencies --   1662.0889              1690.1153              1813.6899
 Red. masses --      5.2177                 6.3086                 8.0288
 Frc consts  --      8.4925                10.6174                15.5605
 IR Inten    --     11.4534                22.4530               239.5268

                     73                     74                     75
                      A                      A                      A
 Frequencies --   3053.1384              3072.9125              3090.5996
 Red. masses --      1.0650                 1.0366                 1.0798
 Frc consts  --      5.8491                 5.7671                 6.0768
 IR Inten    --     32.3519                16.9652                14.4576

                     76                     77                     78
                      A                      A                      A
 Frequencies --   3098.8587              3140.2292              3150.9948
 Red. masses --      1.0852                 1.1017                 1.1034
 Frc consts  --      6.1401                 6.4009                 6.4546
 IR Inten    --     51.9141                43.1619                19.7270

                     79                     80                     81
                      A                      A                      A
 Frequencies --   3158.2004              3222.8165              3236.0108
 Red. masses --      1.1000                 1.0907                 1.0921
 Frc consts  --      6.4641                 6.6748                 6.7382
 IR Inten    --      6.6534                 4.5135                 0.4921

                     82                     83                     84
                      A                      A                      A
 Frequencies --   3289.8278              3644.3597              3655.4518
 Red. masses --      1.0929                 1.0772                 1.0766
 Frc consts  --      6.9689                 8.4294                 8.4762
 IR Inten    --      9.5375                10.5050                36.2570

 - Thermochemistry -
 -------------------
 Temperature   298.150 Kelvin.  Pressure   1.00000 Atm.
 Atom     1 has atomic number  6 and mass  12.00000

 Molecular mass:   280.05903 amu.
 Principal axes and moments of inertia in atomic units:
                           1         2         3
     Eigenvalues --  2089.09282********************
           X            0.99996   0.00542  -0.00758
           Y           -0.00533   0.99992   0.01182
           Z            0.00764  -0.01178   0.99990
 This molecule is an asymmetric top.
 Rotational symmetry number  1.
 Warning -- assumption of classical behavior for rotation
           may cause significant error
 Rotational temperatures (Kelvin)      0.04146     0.00703     0.00639
 Rotational constants (GHZ):           0.86389     0.14642     0.13314
 Zero-point vibrational energy     596979.3 (Joules/Mol)
                                  142.68149 (Kcal/Mol)
 Warning -- explicit consideration of  27 degrees of freedom as
           vibrations may cause significant error
 Vibrational temperatures:     14.71    36.98    71.36    88.49   120.36
          (Kelvin)            137.38   159.38   185.49   212.66   229.97
                              314.89   358.75   366.55   430.75   440.54
                              447.38   474.41   503.46   520.97   563.24
                              652.48   668.57   700.02   724.51   757.69
                              780.73   862.40   934.76   968.50  1015.21
                             1063.00  1082.77  1108.91  1135.41  1151.22
                             1240.60  1262.72  1296.82  1307.26  1352.36
                             1437.65  1443.55  1514.44  1528.09  1602.80
                             1660.24  1677.59  1692.69  1696.57  1751.70
                             1765.10  1776.81  1833.61  1871.46  1879.39
                             1902.88  1926.48  1970.81  2000.04  2026.93
                             2069.77  2092.48  2155.02  2159.36  2182.72
                             2195.65  2223.54  2254.40  2288.31  2391.37
                             2431.70  2609.49  4392.78  4421.23  4446.68
                             4458.56  4518.08  4533.57  4543.94  4636.91
                             4655.89  4733.32  5243.41  5259.37

 Zero-point correction=                           0.227377 (Hartree/Particle)
 Thermal correction to Energy=                    0.245005
 Thermal correction to Enthalpy=                  0.245949
 Thermal correction to Gibbs Free Energy=         0.178657
 Sum of electronic and zero-point Energies=          -1370.569416
 Sum of electronic and thermal Energies=             -1370.551788
 Sum of electronic and thermal Enthalpies=           -1370.550844
 Sum of electronic and thermal Free Energies=        -1370.618136

                     E (Thermal)             CV                S
                      KCal/Mol        Cal/Mol-Kelvin    Cal/Mol-Kelvin
 Total                  153.743             64.178            141.628
 Electronic               0.000              0.000              0.000
 Translational            0.889              2.981             42.788
 Rotational               0.889              2.981             34.211
 Vibrational            151.966             58.216             64.629
 Vibration     1          0.593              1.987              7.968
 Vibration     2          0.593              1.985              6.136
 Vibration     3          0.595              1.978              4.833
 Vibration     4          0.597              1.973              4.408
 Vibration     5          0.601              1.960              3.803
 Vibration     6          0.603              1.952              3.545
 Vibration     7          0.607              1.941              3.255
 Vibration     8          0.611              1.924              2.962
 Vibration     9          0.617              1.905              2.700
 Vibration    10          0.622              1.892              2.552
 Vibration    11          0.647              1.812              1.968
 Vibration    12          0.662              1.764              1.735
 Vibration    13          0.665              1.755              1.697
 Vibration    14          0.692              1.675              1.420
 Vibration    15          0.697              1.662              1.383
 Vibration    16          0.700              1.653              1.357
 Vibration    17          0.713              1.616              1.261
 Vibration    18          0.727              1.575              1.167
 Vibration    19          0.736              1.550              1.113
 Vibration    20          0.759              1.488              0.995
 Vibration    21          0.812              1.353              0.785
 Vibration    22          0.822              1.328              0.753
 Vibration    23          0.843              1.280              0.693
 Vibration    24          0.859              1.242              0.649
 Vibration    25          0.882              1.191              0.595
 Vibration    26          0.898              1.156              0.560
 Vibration    27          0.957              1.033              0.451

 Optimization completed.
    -- Stationary point found.
 Normal termination of Gaussian 09 at Thu Dec 12 20:29:03 2019.
