 Gaussian 16, Revision C.01,
 Gaussian 16:  ES64L-G16RevC.01  3-Jul-2019

 ---------------------------------------------------------------------
 # DSDPBEP86/AUG-cc-PVTZ SCF=Tight INT(grid=ultrafine) MaxDisk=60000MB
 ---------------------------------------------------------------------

 ---------------------------
 29_c2.DSDPBEP86_AUG-cc-PVTZ
 ---------------------------
 Symbolic Z-matrix:
 Charge =  0 Multiplicity = 1

                         Standard orientation:
 ---------------------------------------------------------------------
 Center     Atomic      Atomic             Coordinates (Angstroms)
 Number     Number       Type             X           Y           Z
 ---------------------------------------------------------------------
      1          6           0       -0.308088   -0.010725   -0.195639
      2          7           0       -1.551182   -0.654679   -0.247698
      3          6           0       -2.780233   -0.080096   -0.552322
      4          8           0       -2.922276    1.095881   -0.811976
      5          7           0       -3.812117   -0.984202   -0.548980
      6          6           0       -5.190707   -0.538572   -0.701145
      7          6           0       -5.907339   -0.331645    0.632884
      8          6           0       -5.241124    0.723449    1.510767
      9          6           0        0.824043   -0.820186   -0.070895
     10          6           0        2.095717   -0.272804    0.014512
     11          6           0        2.251788    1.112057   -0.028337
     12          6           0        1.131329    1.919671   -0.153384
     13          6           0       -0.143622    1.376515   -0.235678
     14          1           0       -5.720400   -1.273400   -1.312006
     15          1           0       -5.153677    0.395061   -1.262781
     16          1           0       -5.960841   -1.287212    1.167940
     17          1           0       -6.941448   -0.044445    0.417815
     18          1           0       -4.222594    0.432949    1.779574
     19          1           0       -5.798282    0.869560    2.437890
     20          1           0       -5.177771    1.682013    0.992085
     21          1           0        0.716195   -1.898434   -0.038325
     22          6           0        3.282953   -1.191525    0.150695
     23         17           0        3.818260    1.857773    0.070641
     24          1           0        1.259199    2.994665   -0.186777
     25          1           0       -1.002715    2.021006   -0.338329
     26          9           0        2.907330   -2.480769    0.171059
     27          9           0        4.142736   -1.055402   -0.865406
     28          9           0        3.961965   -0.969203    1.282233
     29          1           0       -3.670693   -1.875354   -0.096918
     30          1           0       -1.512688   -1.661904   -0.208234
 ---------------------------------------------------------------------

 SCF Done:  E(RDSDPBEP86) =  -1367.76583224     A.U. after   13 cycles
 E2(DSDPBEP86) =    -0.1697699396D+01 E(DSDPBEP86) =    -0.13694635316342D+04

 The electronic state is 1-A.
 Alpha  occ. eigenvalues -- -103.57615 -25.71472 -25.70876 -25.70869 -19.97954
 Alpha  occ. eigenvalues --  -15.13679 -15.11628 -11.09109 -10.97622 -10.90186
 Alpha  occ. eigenvalues --  -10.89803 -10.87002 -10.85929 -10.85453 -10.84852
 Alpha  occ. eigenvalues --  -10.84015 -10.82378 -10.80629 -10.15113  -7.72800
 Alpha  occ. eigenvalues --   -7.72314  -7.72301  -1.57831  -1.48435  -1.48111
 Alpha  occ. eigenvalues --   -1.29005  -1.16551  -1.12990  -1.09450  -1.02417
 Alpha  occ. eigenvalues --   -0.97612  -0.96138  -0.91976  -0.87349  -0.85327
 Alpha  occ. eigenvalues --   -0.80053  -0.78350  -0.76034  -0.73916  -0.73895
 Alpha  occ. eigenvalues --   -0.73479  -0.71216  -0.69642  -0.64461  -0.62344
 Alpha  occ. eigenvalues --   -0.62305  -0.61443  -0.60038  -0.59564  -0.58830
 Alpha  occ. eigenvalues --   -0.57876  -0.57416  -0.55929  -0.55904  -0.55751
 Alpha  occ. eigenvalues --   -0.55024  -0.53673  -0.52699  -0.50728  -0.49779
 Alpha  occ. eigenvalues --   -0.49252  -0.47838  -0.46464  -0.45241  -0.44582
 Alpha  occ. eigenvalues --   -0.43715  -0.41017  -0.39948  -0.39324  -0.36036
 Alpha  occ. eigenvalues --   -0.34416  -0.29200
 Alpha virt. eigenvalues --    0.00211   0.01840   0.02259   0.02509   0.03082
 Alpha virt. eigenvalues --    0.03332   0.03736   0.04016   0.04432   0.04814
 Alpha virt. eigenvalues --    0.05171   0.05403   0.05580   0.06408   0.07144

 Mulliken charges:
               1
     1  C    0.646892
     2  N   -0.425672
     3  C    0.788024
     4  O   -0.890175
     5  N   -0.182258
     6  C   -0.379940
     7  C   -0.380527
     8  C   -0.989676
     9  C   -0.906257
    10  C    0.348250
    11  C    0.775360
    12  C   -0.907755
    13  C   -0.345625
    14  H    0.329074
    15  H    0.334268
    16  H    0.213954
    17  H    0.261222
    18  H    0.357810
    19  H    0.241167
    20  H    0.284528
    21  H    0.277262
    22  C    1.192779
    23  Cl  -0.468867
    24  H    0.428785
    25  H    0.614732
    26  F   -0.372637
    27  F   -0.407700
    28  F   -0.408419
    29  H   -0.028290
    30  H   -0.000307
 Sum of Mulliken charges =  -0.00000

 Dipole moment (field-independent basis, Debye):
    X=             -5.0462    Y=             -2.6698    Z=              0.6288  Tot=              5.7435
 Quadrupole moment (field-independent basis, Debye-Ang):
   XX=           -112.8851   YY=           -106.0514   ZZ=           -115.7589
   XY=             12.5637   XZ=             -2.9378   YZ=              1.0435

 Normal termination of Gaussian 16 at Wed Sep  9 20:25:59 2020.
