 Gaussian 09, Revision E.01,
 Gaussian 09:  ES64L-G09RevE.01 30-Nov-2015

 -------------------------------------------------------------
 # MP2/Gen 6D SCF=Tight INT(grid=ultrafine) maxdisk=3489660928
 -------------------------------------------------------------

 -----------------
 29_c2.MP2_6-31pGd
 -----------------
 Symbolic Z-matrix:
 Charge =  0 Multiplicity = 1

                         Standard orientation:
 ---------------------------------------------------------------------
 Center     Atomic      Atomic             Coordinates (Angstroms)
 Number     Number       Type             X           Y           Z
 ---------------------------------------------------------------------
      1          6           0       -0.308088   -0.010725   -0.195639
      2          7           0       -1.551182   -0.654679   -0.247698
      3          6           0       -2.780233   -0.080096   -0.552322
      4          8           0       -2.922276    1.095881   -0.811976
      5          7           0       -3.812117   -0.984202   -0.548980
      6          6           0       -5.190707   -0.538572   -0.701145
      7          6           0       -5.907339   -0.331645    0.632884
      8          6           0       -5.241124    0.723449    1.510767
      9          6           0        0.824043   -0.820186   -0.070895
     10          6           0        2.095717   -0.272804    0.014512
     11          6           0        2.251788    1.112057   -0.028337
     12          6           0        1.131329    1.919671   -0.153384
     13          6           0       -0.143622    1.376515   -0.235678
     14          1           0       -5.720400   -1.273400   -1.312006
     15          1           0       -5.153677    0.395061   -1.262781
     16          1           0       -5.960841   -1.287212    1.167940
     17          1           0       -6.941448   -0.044445    0.417815
     18          1           0       -4.222594    0.432949    1.779574
     19          1           0       -5.798282    0.869560    2.437890
     20          1           0       -5.177771    1.682013    0.992085
     21          1           0        0.716195   -1.898434   -0.038325
     22          6           0        3.282953   -1.191525    0.150695
     23         17           0        3.818260    1.857773    0.070641
     24          1           0        1.259199    2.994665   -0.186777
     25          1           0       -1.002715    2.021006   -0.338329
     26          9           0        2.907330   -2.480769    0.171059
     27          9           0        4.142736   -1.055402   -0.865406
     28          9           0        3.961965   -0.969203    1.282233
     29          1           0       -3.670693   -1.875354   -0.096918
     30          1           0       -1.512688   -1.661904   -0.208234
 ---------------------------------------------------------------------

 SCF Done:  E(RHF) =  -1365.16087609     A.U. after   17 cycles
 E2 =    -0.2583964198D+01 EUMP2 =    -0.13677448402861D+04

 The electronic state is 1-A.
 Alpha  occ. eigenvalues -- -104.83765 -26.35877 -26.35180 -26.35172 -20.54701
 Alpha  occ. eigenvalues --  -15.63025 -15.60798 -11.52545 -11.40860 -11.32193
 Alpha  occ. eigenvalues --  -11.31954 -11.29121 -11.27507 -11.27496 -11.26929
 Alpha  occ. eigenvalues --  -11.25915 -11.23718 -11.22019 -10.57011  -8.03955
 Alpha  occ. eigenvalues --   -8.03610  -8.03605  -1.73878  -1.64178  -1.63788
 Alpha  occ. eigenvalues --   -1.42453  -1.28708  -1.24698  -1.20861  -1.13028
 Alpha  occ. eigenvalues --   -1.08301  -1.06364  -1.01987  -0.97136  -0.94562
 Alpha  occ. eigenvalues --   -0.88947  -0.86888  -0.84559  -0.82624  -0.82428
 Alpha  occ. eigenvalues --   -0.81553  -0.79240  -0.77230  -0.72062  -0.71363
 Alpha  occ. eigenvalues --   -0.71138  -0.68313  -0.67352  -0.66461  -0.66314
 Alpha  occ. eigenvalues --   -0.65972  -0.64875  -0.64708  -0.62616  -0.62512
 Alpha  occ. eigenvalues --   -0.61298  -0.59959  -0.59343  -0.56161  -0.55576
 Alpha  occ. eigenvalues --   -0.55057  -0.54045  -0.51935  -0.50536  -0.49866
 Alpha  occ. eigenvalues --   -0.49165  -0.46439  -0.45560  -0.44860  -0.41033
 Alpha  occ. eigenvalues --   -0.37457  -0.32281
 Alpha virt. eigenvalues --    0.04532   0.07268   0.07602   0.07973   0.08369
 Alpha virt. eigenvalues --    0.08645   0.09047   0.09234   0.09818   0.10880
 Alpha virt. eigenvalues --    0.11102   0.11220   0.12288   0.12663   0.12747

 Mulliken charges:
               1
     1  C   -0.300343
     2  N   -0.805341
     3  C    0.734225
     4  O   -0.624044
     5  N   -0.648215
     6  C   -0.041586
     7  C   -0.397744
     8  C   -0.613675
     9  C   -0.437456
    10  C   -1.627307
    11  C    0.623506
    12  C   -0.820135
    13  C    0.854451
    14  H    0.197038
    15  H    0.243385
    16  H    0.187817
    17  H    0.197776
    18  H    0.189334
    19  H    0.196782
    20  H    0.214951
    21  H    0.259147
    22  C    1.805814
    23  Cl   0.297137
    24  H    0.267154
    25  H    0.318844
    26  F   -0.443136
    27  F   -0.350246
    28  F   -0.353170
    29  H    0.417130
    30  H    0.457909
 Sum of Mulliken charges =  -0.00000

 Dipole moment (field-independent basis, Debye):
    X=             -5.1738    Y=             -2.7897    Z=              0.6667  Tot=              5.9157
 Quadrupole moment (field-independent basis, Debye-Ang):
   XX=           -115.3123   YY=           -106.8410   ZZ=           -117.4914
   XY=             13.1697   XZ=             -3.0810   YZ=              1.0331

 Normal termination of Gaussian 09 at Fri Dec 13 11:00:10 2019.
