 Gaussian 09, Revision E.01,

 ----------------------------------------------------------------------
 # M062X/6-311+G* SCF=Tight INT(grid=ultrafine) OPT IOP(2/17=4) Empiric
 alDispersion=GD3 SCRF=(SMD,Solvent=h2o) maxdisk=2147483648
 ----------------------------------------------------------------------

 ----------------------------------
 29_c2.M062X_6-311pGd_opt_water_GD3
 ----------------------------------
 Symbolic Z-matrix:
 Charge =  0 Multiplicity = 1

 SCF Done:  E(RM062X) =  -1370.81464218     A.U. after   15 cycles
 Optimization completed.
    -- Stationary point found.
 Normal termination of Gaussian 09 at Thu Nov 14 09:27:57 2019.
 Gaussian 09:  ES64L-G09RevE.01 30-Nov-2015

 ----------------------------------------------------------------------
 # M062X/6-311+G* SCF=Tight INT(grid=ultrafine) SCRF=(SMD,Solvent=h2o)E
 mpiricalDispersion=GD3 Freq=Noraman maxdisk=2147483648 geom=check gues
 s=read IOP(2/17=4)
 ----------------------------------------------------------------------

 ----------------------------------
 29_c2.M062X_6-311pGd_opt_water_GD3
 ----------------------------------
 Structure from the checkpoint file:  "29_c2.M062X_6-311pGd_opt_water_GD3.chk"
 Charge =  0 Multiplicity = 1

                         Standard orientation:
 ---------------------------------------------------------------------
 Center     Atomic      Atomic             Coordinates (Angstroms)
 Number     Number       Type             X           Y           Z
 ---------------------------------------------------------------------
      1          6           0        0.131083   -0.208878   -0.280065
      2          7           0        1.431349    0.284676   -0.432115
      3          6           0        2.589421   -0.353412   -0.025701
      4          8           0        2.589265   -1.470658    0.497776
      5          7           0        3.720839    0.343235   -0.247939
      6          6           0        5.020029   -0.170403    0.167965
      7          6           0        6.109756    0.844755   -0.133995
      8          6           0        7.477565    0.323485    0.289027
      9          6           0       -0.904691    0.719698   -0.148812
     10          6           0       -2.223493    0.302339   -0.041705
     11          6           0       -2.519665   -1.060912   -0.050364
     12          6           0       -1.497677   -1.987425   -0.185046
     13          6           0       -0.179083   -1.570287   -0.309850
     14          1           0        1.503823    1.272286   -0.645025
     15          1           0        3.677493    1.253520   -0.686079
     16          1           0        5.225354   -1.109787   -0.353559
     17          1           0        4.996731   -0.390066    1.239123
     18          1           0        5.885745    1.779676    0.389030
     19          1           0        6.108233    1.068264   -1.205460
     20          1           0        7.502160    0.110995    1.360932
     21          1           0        8.260039    1.053805    0.075134
     22          1           0        7.727153   -0.599256   -0.241056
     23          1           0       -0.669461    1.777439   -0.132711
     24          6           0       -3.310103    1.332057    0.092977
     25         17           0       -4.159608   -1.637977    0.096513
     26          1           0       -1.731342   -3.044852   -0.207362
     27          1           0        0.599211   -2.307405   -0.440749
     28          9           0       -2.829289    2.581166    0.073313
     29          9           0       -4.211440    1.252784   -0.900888
     30          9           0       -3.993728    1.202137    1.242981
 ---------------------------------------------------------------------

 SCF Done:  E(RM062X) =  -1370.81464218     A.U. after    2 cycles

 The electronic state is 1-A.
 Alpha  occ. eigenvalues -- -102.68864 -25.28888 -25.28512 -25.28507 -19.59996
 Alpha  occ. eigenvalues --  -14.78726 -14.77056 -10.81519 -10.68504 -10.62330
 Alpha  occ. eigenvalues --  -10.61057 -10.59120 -10.56978 -10.56643 -10.56616
 Alpha  occ. eigenvalues --  -10.56075 -10.53051 -10.51749  -9.83142  -7.55656
 Alpha  occ. eigenvalues --   -7.54977  -7.54967  -1.48127  -1.38730  -1.38384
 Alpha  occ. eigenvalues --   -1.18757  -1.06730  -1.03642  -1.01375  -0.94984
 Alpha  occ. eigenvalues --   -0.90413  -0.88234  -0.84767  -0.81727  -0.77806
 Alpha  occ. eigenvalues --   -0.74597  -0.72441  -0.70454  -0.70023  -0.69612
 Alpha  occ. eigenvalues --   -0.68657  -0.65100  -0.63985  -0.59951  -0.58681
 Alpha  occ. eigenvalues --   -0.58585  -0.57330  -0.56415  -0.55730  -0.54454
 Alpha  occ. eigenvalues --   -0.54412  -0.53364  -0.52357  -0.52304  -0.51611
 Alpha  occ. eigenvalues --   -0.51283  -0.49356  -0.48610  -0.46774  -0.45994
 Alpha  occ. eigenvalues --   -0.45883  -0.44248  -0.42666  -0.42094  -0.39985
 Alpha  occ. eigenvalues --   -0.39286  -0.39052  -0.37345  -0.36634  -0.33703
 Alpha  occ. eigenvalues --   -0.32872  -0.28081
 Alpha virt. eigenvalues --   -0.01188  -0.00057   0.01156   0.01951   0.02742
 Alpha virt. eigenvalues --    0.03083   0.03657   0.03847   0.04318   0.04953
 Alpha virt. eigenvalues --    0.05306   0.05790   0.06346   0.06634   0.07065

 Mulliken charges:
               1
     1  C   -0.836669
     2  N   -0.318583
     3  C    0.056016
     4  O   -0.530816
     5  N   -0.413238
     6  C   -0.514611
     7  C   -0.162525
     8  C   -1.031362
     9  C   -0.532966
    10  C   -1.124379
    11  C    0.892086
    12  C   -0.686877
    13  C    0.573887
    14  H    0.429076
    15  H    0.451665
    16  H    0.276751
    17  H    0.277047
    18  H    0.269002
    19  H    0.267046
    20  H    0.269742
    21  H    0.280096
    22  H    0.269567
    23  H    0.317048
    24  C    0.726898
    25  Cl   0.415380
    26  H    0.321504
    27  H    0.316132
    28  F   -0.144039
    29  F   -0.058935
    30  F   -0.053946
 Sum of Mulliken charges =  -0.00000

 Dipole moment (field-independent basis, Debye):
    X=              7.1680    Y=              4.4764    Z=             -2.8109  Tot=              8.9062
 Quadrupole moment (field-independent basis, Debye-Ang):
   XX=           -110.9754   YY=           -109.0338   ZZ=           -115.5921
   XY=             19.8505   XZ=             -5.5263   YZ=              0.8631

  Exact polarizability: 291.523  15.157 222.534  -5.579  -6.555 148.745
 Approx polarizability: 232.458  11.621 199.323  -5.856  -5.846 136.360

                      1                      2                      3
                      A                      A                      A
 Frequencies --     11.4705                31.6614                38.7450
 Red. masses --      4.6319                 2.2687                 4.4779
 Frc consts  --      0.0004                 0.0013                 0.0040
 IR Inten    --      0.6141                 1.0939                 4.0315

                      4                      5                      6
                      A                      A                      A
 Frequencies --     57.4768                61.8777                64.9489
 Red. masses --      9.8314                 4.0942                 5.8825
 Frc consts  --      0.0191                 0.0092                 0.0146
 IR Inten    --      1.2105                28.1280                16.7129

                      7                      8                      9
                      A                      A                      A
 Frequencies --    104.1792               135.4680               140.7243
 Red. masses --      5.1483                 7.4591                 2.9155
 Frc consts  --      0.0329                 0.0807                 0.0340
 IR Inten    --      1.0877                 3.3984                14.1588

                     10                     11                     12
                      A                      A                      A
 Frequencies --    154.6693               171.2335               215.9095
 Red. masses --      8.8124                 7.7250                 7.3269
 Frc consts  --      0.1242                 0.1335                 0.2012
 IR Inten    --      3.7403                 6.2207                 2.4464

                     13                     14                     15
                      A                      A                      A
 Frequencies --    242.4304               256.3390               306.6739
 Red. masses --      1.1264                 5.7238                 8.8043
 Frc consts  --      0.0390                 0.2216                 0.4879
 IR Inten    --      0.8004                 5.7147                 5.1697

                     16                     17                     18
                      A                      A                      A
 Frequencies --    309.8890               327.6007               343.7026
 Red. masses --      5.0484                 1.6846                 2.3538
 Frc consts  --      0.2856                 0.1065                 0.1638
 IR Inten    --      6.0051                41.6288                24.2185

                     19                     20                     21
                      A                      A                      A
 Frequencies --    356.1115               370.2372               424.8530
 Red. masses --      6.1838                 6.8213                 6.1285
 Frc consts  --      0.4620                 0.5509                 0.6517
 IR Inten    --      8.3517                 1.3773                33.3182

                     22                     23                     24
                      A                      A                      A
 Frequencies --    463.7835               470.6667               498.4518
 Red. masses --      4.0071                 6.0241                 1.2435
 Frc consts  --      0.5078                 0.7863                 0.1820
 IR Inten    --      4.7477                 3.5373               300.5851

                     25                     26                     27
                      A                      A                      A
 Frequencies --    529.2385               540.4812               601.0679
 Red. masses --      5.3936                 7.4614                 9.1977
 Frc consts  --      0.8901                 1.2842                 1.9578
 IR Inten    --     39.2481                14.6526                 3.9200

                     28                     29                     30
                      A                      A                      A
 Frequencies --    647.1017               671.3383               707.5919
 Red. masses --      5.3103                 8.0410                 7.0224
 Frc consts  --      1.3101                 2.1352                 2.0716
 IR Inten    --      3.1546                25.8571                11.7774

                     31                     32                     33
                      A                      A                      A
 Frequencies --    734.6799               758.7368               761.7973
 Red. masses --      4.5220                 1.1526                 9.1588
 Frc consts  --      1.4381                 0.3909                 3.1316
 IR Inten    --      5.9031                16.9897                 8.9289

                     34                     35                     36
                      A                      A                      A
 Frequencies --    778.2703               817.7682               857.5918
 Red. masses --      5.5129                 6.0648                 1.4263
 Frc consts  --      1.9674                 2.3896                 0.6181
 IR Inten    --     22.4662                27.8737                48.9000

                     37                     38                     39
                      A                      A                      A
 Frequencies --    907.7522               908.0940               920.2982
 Red. masses --      1.3895                 1.4261                 2.2358
 Frc consts  --      0.6746                 0.6929                 1.1157
 IR Inten    --     16.6561                36.8981                20.9071

                     40                     41                     42
                      A                      A                      A
 Frequencies --    943.0588               996.3640              1047.0729
 Red. masses --      2.4504                 1.3280                 5.7856
 Frc consts  --      1.2840                 0.7768                 3.7373
 IR Inten    --     13.7210                 0.4970                55.2262

                     43                     44                     45
                      A                      A                      A
 Frequencies --   1051.7247              1081.7180              1144.4655
 Red. masses --      4.2129                 2.6322                 3.5136
 Frc consts  --      2.7456                 1.8147                 2.7115
 IR Inten    --     29.0665                32.3998               141.9365

                     46                     47                     48
                      A                      A                      A
 Frequencies --   1149.2944              1158.3583              1165.0740
 Red. masses --     12.6288                 3.1057                 1.8189
 Frc consts  --      9.8282                 2.4553                 1.4547
 IR Inten    --    464.0133                82.3663                76.5579

                     49                     50                     51
                      A                      A                      A
 Frequencies --   1173.1327              1182.7813              1198.4893
 Red. masses --      3.0794                 1.6231                 2.6558
 Frc consts  --      2.4970                 1.3379                 2.2476
 IR Inten    --      0.1334                 0.1123               316.6848

                     52                     53                     54
                      A                      A                      A
 Frequencies --   1257.7566              1286.7383              1287.6853
 Red. masses --      1.8835                 1.2122                 2.6766
 Frc consts  --      1.7555                 1.1825                 2.6149
 IR Inten    --    389.3536                12.2130               317.9523

                     55                     56                     57
                      A                      A                      A
 Frequencies --   1310.3016              1331.8289              1334.5311
 Red. masses --      1.5583                 3.4046                 1.0982
 Frc consts  --      1.5763                 3.5581                 1.1524
 IR Inten    --      5.5942                57.3226                 4.1722

                     58                     59                     60
                      A                      A                      A
 Frequencies --   1347.8977              1369.0901              1416.8263
 Red. masses --      1.5416                 3.3004                 1.2670
 Frc consts  --      1.6502                 3.6448                 1.4986
 IR Inten    --     71.6990               527.7790                 3.6766

                     61                     62                     63
                      A                      A                      A
 Frequencies --   1424.3217              1454.6450              1486.3527
 Red. masses --      1.6255                 3.5601                 1.0579
 Frc consts  --      1.9430                 4.4384                 1.3770
 IR Inten    --     16.1402                38.4578                10.6965

                     64                     65                     66
                      A                      A                      A
 Frequencies --   1500.7719              1509.1417              1530.2628
 Red. masses --      1.0380                 1.0806                 1.0965
 Frc consts  --      1.3774                 1.4501                 1.5129
 IR Inten    --     13.9710                 8.8456                83.6764

                     67                     68                     69
                      A                      A                      A
 Frequencies --   1538.5442              1573.6376              1578.4921
 Red. masses --      2.9329                 2.0486                 2.5094
 Frc consts  --      4.0904                 2.9889                 3.6839
 IR Inten    --    624.3720               649.3740               812.9373

                     70                     71                     72
                      A                      A                      A
 Frequencies --   1664.2895              1676.1193              1700.8250
 Red. masses --      6.0463                 5.1381                 3.9128
 Frc consts  --      9.8673                 8.5048                 6.6689
 IR Inten    --     44.1889               113.0863               618.0907

                     73                     74                     75
                      A                      A                      A
 Frequencies --   3067.5694              3068.2160              3076.1899
 Red. masses --      1.0601                 1.0373                 1.0580
 Frc consts  --      5.8773                 5.7532                 5.8988
 IR Inten    --      9.0060                25.4806                98.0022

                     76                     77                     78
                      A                      A                      A
 Frequencies --   3098.2112              3118.3294              3137.3979
 Red. masses --      1.1039                 1.1072                 1.1043
 Frc consts  --      6.2429                 6.3433                 6.4045
 IR Inten    --      0.1102                36.9552                99.2516

                     79                     80                     81
                      A                      A                      A
 Frequencies --   3145.2706              3239.9417              3242.7468
 Red. masses --      1.1024                 1.0927                 1.0920
 Frc consts  --      6.4255                 6.7579                 6.7654
 IR Inten    --     46.7444                 1.0999                 2.5740

                     82                     83                     84
                      A                      A                      A
 Frequencies --   3278.3574              3600.5109              3635.0415
 Red. masses --      1.0933                 1.0787                 1.0795
 Frc consts  --      6.9234                 8.2394                 8.4038
 IR Inten    --      1.5611                59.5908               216.1599

 - Thermochemistry -
 -------------------
 Temperature   298.150 Kelvin.  Pressure   1.00000 Atm.
 Atom     1 has atomic number  6 and mass  12.00000

 Molecular mass:   280.05903 amu.
 Principal axes and moments of inertia in atomic units:
                           1         2         3
     Eigenvalues --  1920.53327********************
           X            0.99995   0.00988   0.00166
           Y           -0.00988   0.99995  -0.00222
           Z           -0.00168   0.00220   1.00000
 This molecule is an asymmetric top.
 Rotational symmetry number  1.
 Warning -- assumption of classical behavior for rotation
           may cause significant error
 Rotational temperatures (Kelvin)      0.04510     0.00620     0.00561
 Rotational constants (GHZ):           0.93971     0.12916     0.11688
 Zero-point vibrational energy     593828.0 (Joules/Mol)
                                  141.92829 (Kcal/Mol)
 Warning -- explicit consideration of  27 degrees of freedom as
           vibrations may cause significant error
 Vibrational temperatures:     16.50    45.55    55.75    82.70    89.03
          (Kelvin)             93.45   149.89   194.91   202.47   222.53
                              246.37   310.65   348.80   368.81   441.23
                              445.86   471.34   494.51   512.36   532.69
                              611.27   667.28   677.18   717.16   761.46
                              777.63   864.80   931.03   965.90  1018.07
                             1057.04  1091.65  1096.05  1119.76  1176.58
                             1233.88  1306.05  1306.54  1324.10  1356.85
                             1433.54  1506.50  1513.20  1556.35  1646.63
                             1653.58  1666.62  1676.28  1687.87  1701.76
                             1724.36  1809.63  1851.33  1852.69  1885.23
                             1916.20  1920.09  1939.32  1969.81  2038.49
                             2049.28  2092.91  2138.53  2159.27  2171.32
                             2201.70  2213.62  2264.11  2271.10  2394.54
                             2411.56  2447.10  4413.54  4414.47  4425.95
                             4457.63  4486.57  4514.01  4525.34  4661.55
                             4665.58  4716.82  5180.33  5230.01

 Zero-point correction=                           0.226177 (Hartree/Particle)
 Thermal correction to Energy=                    0.244215
 Thermal correction to Enthalpy=                  0.245159
 Thermal correction to Gibbs Free Energy=         0.176434
 Sum of electronic and zero-point Energies=          -1370.588465
 Sum of electronic and thermal Energies=             -1370.570428
 Sum of electronic and thermal Enthalpies=           -1370.569483
 Sum of electronic and thermal Free Energies=        -1370.638208

                     E (Thermal)             CV                S
                      KCal/Mol        Cal/Mol-Kelvin    Cal/Mol-Kelvin
 Total                  153.247             64.568            144.644
 Electronic               0.000              0.000              0.000
 Translational            0.889              2.981             42.788
 Rotational               0.889              2.981             34.382
 Vibrational            151.470             58.606             67.474
 Vibration     1          0.593              1.987              7.738
 Vibration     2          0.594              1.983              5.723
 Vibration     3          0.594              1.981              5.322
 Vibration     4          0.596              1.975              4.542
 Vibration     5          0.597              1.973              4.396
 Vibration     6          0.597              1.971              4.301
 Vibration     7          0.605              1.946              3.375
 Vibration     8          0.613              1.918              2.867
 Vibration     9          0.615              1.913              2.794
 Vibration    10          0.620              1.897              2.614
 Vibration    11          0.626              1.878              2.422
 Vibration    12          0.645              1.817              1.993
 Vibration    13          0.659              1.775              1.785
 Vibration    14          0.666              1.752              1.687
 Vibration    15          0.697              1.661              1.380
 Vibration    16          0.699              1.655              1.363
 Vibration    17          0.711              1.620              1.272
 Vibration    18          0.722              1.588              1.195
 Vibration    19          0.732              1.563              1.139
 Vibration    20          0.742              1.533              1.079
 Vibration    21          0.787              1.416              0.876
 Vibration    22          0.821              1.330              0.755
 Vibration    23          0.828              1.315              0.736
 Vibration    24          0.854              1.253              0.662
 Vibration    25          0.884              1.185              0.589
 Vibration    26          0.896              1.161              0.564
 Vibration    27          0.959              1.030              0.448

 Optimization completed.
    -- Stationary point found.
 Normal termination of Gaussian 09 at Thu Nov 14 10:36:59 2019.
