 Q-Chem 5.0, Q-Chem, Inc., Pleasanton, CA (2017)
 Q-Chem 5.0.0 for Intel X86 EM64T Linux

User input:
--------------------------------------------------------------
$molecule
  0 1
    C     -5.9286419743    1.4199467089    0.3515334142
    N     -4.7012333765    0.7531887212    0.3602557310
    C     -3.4537066723    1.2828126907    0.0351216639
    O     -3.2844584977    2.4223218776   -0.3386736204
    N     -2.4358024631    0.3732090485    0.1525047662
    C     -1.0621254658    0.8171195865   -0.0512339121
    C     -0.1206670757   -0.3769670700   -0.1048904808
    C      1.3240131000    0.0600420145   -0.3257606922
    C     -7.0724701868    0.6452797662    0.5758402703
    C     -8.3081775427    1.2611512814    0.5973993595
    C     -8.4775023079    2.6224656316    0.4067512601
    C     -7.3253615959    3.3639953635    0.1870175277
    C     -6.0586037630    2.7985742413    0.1549598070
    H     -4.7552337412   -0.2479610642    0.4726093448
    H     -2.5667442108   -0.4195011013    0.7641340313
    H     -0.7600056162    1.5117429626    0.7413172028
    H     -1.0311635228    1.3730699919   -0.9895662463
    H     -0.4413969769   -1.0477241525   -0.9074073986
    H     -0.1926109378   -0.9442488440    0.8307251471
    H      1.4282518422    0.6079313839   -1.2651417863
    H      1.9951652794   -0.7989997389   -0.3654469727
    H      1.6666872168    0.7136591306    0.4798830046
    H     -6.9894210667   -0.4233008500    0.7316570649
    Cl    -7.4759037931    5.0781374192   -0.0585301882
    H     -5.1899231620    3.4119262800   -0.0272143493
    S     -9.7734808973    0.2393156020    0.8894509720
    H     -9.4508298994    3.0919793099    0.4253871198
    F     -9.0631115854   -0.5508785474    2.1088463591
    F    -10.3888824641    1.3005835649    1.9366800450
    F     -9.2643450051   -0.9044361955   -0.1339815401
    F    -10.5896281900    0.9474200674   -0.3078211058
    F    -11.0713054480   -0.6694750804    1.1490042015

$end

$rem

    JOBTYPE               sp
    METHOD                CCSD(T)
    BASIS                 6-31+G*
    CC_BACKEND            XM

    MEM_TOTAL             60000
$end
--------------------------------------------------------------

             Standard Nuclear Orientation (Angstroms)
    I     Atom           X                Y                Z
 ----------------------------------------------------------------
    1      C       0.5705935107    -0.2137786729    -0.0445584032
    2      N       1.8035154885     0.4414913626    -0.0857741299
    3      C       3.0673456623    -0.1361401425     0.0219835815
    4      O       3.2518772731    -1.3194170459     0.2026847178
    5      N       4.0854537578     0.7763840202    -0.0676942653
    6      C       5.4636756406     0.3010893240    -0.0800999579
    7      C       6.4295218260     1.4696879839     0.0486796564
    8      C       7.8802798709     0.9983516703     0.0465407659
    9      C      -0.5745726582     0.5906378132    -0.0280060640
   10      C      -1.8179008042    -0.0097584599    -0.0081409315
   11      C      -1.9937442087    -1.3835332540    -0.0041102777
   12      C      -0.8401238527    -2.1545374355    -0.0211426872
   13      C       0.4341595768    -1.6057274547    -0.0414772951
   14      H       1.7582654165     1.4484164747    -0.0422480881
   15      H       3.9069784065     1.6521108124    -0.5376672594
   16      H       5.6666505737    -0.2686717352    -0.9944788837
   17      H       5.5818960999    -0.3888977405     0.7568282580
   18      H       6.2086091091     2.0144426794     0.9713150286
   19      H       6.2710701436     2.1706506211    -0.7795145112
   20      H       8.0716290622     0.3158617526     0.8778519685
   21      H       8.5691264134     1.8389215328     0.1409109406
   22      H       8.1230285310     0.4709166699    -0.8789796604
   23      H      -0.4867682460     1.6701357622    -0.0318953561
   24      Cl     -0.9986575635    -3.8854598823    -0.0173788237
   25      H       1.3045934075    -2.2431578023    -0.0461282632
   26      S      -3.2848169600     1.0505597607     0.0127990814
   27      H      -2.9729330501    -1.8407854703     0.0122180244
   28      F      -2.6907902288     2.0109342917    -1.1451169198
   29      F      -4.0282890424     0.1602734051    -1.1080653067
   30      F      -2.6478331743     2.0264174946     1.1338499178
   31      F      -3.9846790970     0.1751148669     1.1724360904
   32      F      -4.5840869263     1.9935242446     0.0310332409
 ----------------------------------------------------------------

   16   -1923.5178255770      4.59E-09 Convergence criterion met
 Total energy in the final basis set = -1923.5178255770
 CCSD total energy           = -1926.59127221
 CCSD(T) total energy       = -1926.70428286

                    Orbital Energies (a.u.)
 --------------------------------------------------------------

 Alpha MOs
 -- Occupied --
******* -92.409 -26.363 -26.363 -26.363 -26.363 -26.363 -20.554
-15.636 -15.611 -11.412 -11.333 -11.332 -11.318 -11.285 -11.281
-11.278 -11.269 -11.246 -11.233 -10.575  -9.349  -8.045  -8.041
 -8.041  -7.038  -7.038  -7.035  -1.763  -1.663  -1.662  -1.633
 -1.619  -1.430  -1.294  -1.253  -1.215  -1.157  -1.103  -1.075
 -1.042  -1.028  -0.954  -0.909  -0.881  -0.869  -0.865  -0.842
 -0.836  -0.802  -0.784  -0.778  -0.764  -0.754  -0.728  -0.717
 -0.697  -0.691  -0.688  -0.685  -0.682  -0.676  -0.675  -0.659
 -0.655  -0.652  -0.650  -0.635  -0.630  -0.620  -0.601  -0.588
 -0.574  -0.569  -0.559  -0.539  -0.527  -0.512  -0.504  -0.497
 -0.468  -0.466  -0.464  -0.420  -0.371  -0.338

          Ground-State Mulliken Net Atomic Charges

     Atom                 Charge (a.u.)
  ----------------------------------------
      1 C                     0.246470
      2 N                    -0.805366
      3 C                     0.714480
      4 O                    -0.634303
      5 N                    -0.696754
      6 C                    -0.085849
      7 C                    -0.274788
      8 C                    -0.673770
      9 C                    -0.551572
     10 C                    -0.790850
     11 C                    -0.231666
     12 C                     0.291694
     13 C                     0.180812
     14 H                     0.461574
     15 H                     0.420018
     16 H                     0.203576
     17 H                     0.226297
     18 H                     0.207867
     19 H                     0.181805
     20 H                     0.198951
     21 H                     0.200717
     22 H                     0.197228
     23 H                     0.264304
     24 Cl                    0.258628
     25 H                     0.338613
     26 S                     3.067161
     27 H                     0.300011
     28 F                    -0.650049
     29 F                    -0.640887
     30 F                    -0.651832
     31 F                    -0.640712
     32 F                    -0.631811
  ----------------------------------------
  Sum of atomic charges =     0.000000

                    Cartesian Multipole Moments
 -----------------------------------------------------------------
    Charge (ESU x 10^10)
                -0.0000
    Dipole Moment (Debye)
         X       5.1719      Y       3.4384      Z      -0.9385
       Tot       6.2810
    Quadrupole Moments (Debye-Ang)
        XX    -126.0180     XY      19.1046     YY    -133.8976
        XZ      -3.5000     YZ      -0.7779     ZZ    -134.1632

 Total job time:  185727.29s(wall), 649371.98s(cpu)
        *  Thank you very much for using Q-Chem.  Have a nice day.  *
