 Q-Chem 5.0, Q-Chem, Inc., Pleasanton, CA (2017)
 Q-Chem 5.0.0 for Intel X86 EM64T Linux

User input:
--------------------------------------------------------------
$molecule
  0 1
    C     -5.9449858374    1.1845279443    0.2478725437
    N     -4.6898709366    0.5720356328    0.2269034803
    C     -3.4571155953    1.1942612069    0.0313888362
    O     -3.3294990904    2.3797267246   -0.1773056887
    N     -2.4014264383    0.3207204343    0.0694317654
    C     -1.0457093923    0.8524693639   -0.0092716588
    C     -0.0393904459   -0.2778803414   -0.1648991048
    C      1.3871365511    0.2541829455   -0.2601830571
    C     -6.1220392974    2.5723224700    0.2767562977
    C     -7.4168389174    3.0589661629    0.3236412747
    C     -8.5487156523    2.2606952850    0.3433463984
    C     -8.3384048228    0.8900092109    0.3136447808
    C     -7.0660280204    0.3480608181    0.2659324870
    H     -4.7018083567   -0.4357678041    0.1829105246
    H     -2.5151412030   -0.5453296537    0.5762482058
    H     -0.8162789209    1.4547957722    0.8774995276
    H     -1.0048474694    1.5242145698   -0.8680994785
    H     -0.2889054464   -0.8570141514   -1.0588853113
    H     -0.1189121126   -0.9615093937    0.6887801975
    H      1.5002908474    0.9193927323   -1.1193337131
    H      2.1058593520   -0.5588307932   -0.3717388020
    H      1.6587403017    0.8186691137    0.6349470091
    H     -5.2698746932    3.2327400721    0.2536706737
    Cl    -9.7087063898   -0.1796398148    0.3350564792
    H     -6.9491539972   -0.7298908571    0.2438804575
    S     -7.6444805064    4.8579506970    0.3627905896
    H     -9.5473466163    2.6723101731    0.3789373653
    F     -6.5566931056    5.0933501664   -0.8019815006
    F     -8.8183506377    4.7985674347   -0.7465749930
    F     -6.4951710465    5.0492249723    1.4778767696
    F     -8.7570325260    4.7548853520    1.5314398684
    F     -7.8540595781    6.4499035543    0.4000377758

$end

$rem

    JOBTYPE               sp
    METHOD                CCSD(T)
    BASIS                 6-31+G*
    CC_BACKEND            XM

    MEM_TOTAL             60000
$end
--------------------------------------------------------------

             Standard Nuclear Orientation (Angstroms)
    I     Atom           X                Y                Z
 ----------------------------------------------------------------
    1      C      -0.4680790977    -1.1409564778    -0.0473752635
    2      N      -1.8630238488    -1.1824828784    -0.1048613234
    3      C      -2.7396559805    -0.1065918590     0.0331640099
    4      O      -2.3799685666     1.0279206045     0.2537865499
    5      N      -4.0572065146    -0.4685514249    -0.0765911931
    6      C      -5.0763271614     0.5745871232    -0.0633647533
    7      C      -6.4655070296    -0.0402480278     0.0187644799
    8      C      -7.5498537915     1.0324447642     0.0446858975
    9      C       0.2653999302     0.0507453438    -0.0440393088
   10      C       1.6461509617    -0.0389527443    -0.0123031662
   11      C       2.3486870907    -1.2324197690     0.0168357745
   12      C       1.5919420260    -2.3948369041     0.0127791825
   13      C       0.2087979869    -2.3647628264    -0.0178045951
   14      H      -2.2691353385    -2.1055335021    -0.0766362716
   15      H      -4.2813563533    -1.3085298929    -0.5904294264
   16      H      -4.9873111163     1.2111291660    -0.9514463666
   17      H      -4.8856674601     1.2102068894     0.8027373962
   18      H      -6.5271192231    -0.6638630886     0.9155215464
   19      H      -6.6261735700    -0.7025683490    -0.8402807941
   20      H      -7.4276690338     1.6918612669     0.9070596945
   21      H      -8.5443896086     0.5881254986     0.1036552708
   22      H      -7.5142968761     1.6517918574    -0.8546560568
   23      H      -0.2395518760     1.0034941547    -0.0567768333
   24      Cl      2.3998715738    -3.9337601158     0.0488219074
   25      H      -0.3421143019    -3.2989030100    -0.0196514197
   26      S       2.5953467567     1.5065956118    -0.0097857137
   27      H       3.4285002410    -1.2685276755     0.0424700259
   28      F       1.6368363661     2.1777364786     1.0975607224
   29      F       3.5762927003     0.9779187554     1.1608702093
   30      F       1.6913120954     2.1453218447    -1.1826733479
   31      F       3.6310322401     0.9458381921    -1.1175051250
   32      F       3.4428545006     2.8709105530    -0.0097131367
 ----------------------------------------------------------------

   16   -1923.5171873817      3.84E-09 Convergence criterion met
 Total energy in the final basis set = -1923.5171873817
 CCSD total energy           = -1926.59075871
 CCSD(T) total energy       = -1926.70380032

                    Orbital Energies (a.u.)
 --------------------------------------------------------------

 Alpha MOs
 -- Occupied --
******* -92.401 -26.355 -26.355 -26.355 -26.355 -26.355 -20.553
-15.636 -15.611 -11.412 -11.336 -11.333 -11.314 -11.281 -11.281
-11.277 -11.273 -11.246 -11.233 -10.582  -9.341  -8.052  -8.048
 -8.048  -7.030  -7.030  -7.026  -1.755  -1.655  -1.655  -1.625
 -1.611  -1.430  -1.294  -1.252  -1.216  -1.157  -1.101  -1.074
 -1.041  -1.027  -0.953  -0.904  -0.886  -0.861  -0.860  -0.836
 -0.820  -0.816  -0.776  -0.773  -0.756  -0.747  -0.728  -0.717
 -0.688  -0.683  -0.681  -0.679  -0.677  -0.676  -0.668  -0.653
 -0.651  -0.646  -0.642  -0.635  -0.630  -0.617  -0.602  -0.589
 -0.575  -0.569  -0.560  -0.537  -0.526  -0.513  -0.503  -0.497
 -0.475  -0.468  -0.464  -0.419  -0.374  -0.338

          Ground-State Mulliken Net Atomic Charges

     Atom                 Charge (a.u.)
  ----------------------------------------
      1 C                    -0.005204
      2 N                    -0.821397
      3 C                     0.634816
      4 O                    -0.630833
      5 N                    -0.672201
      6 C                    -0.067236
      7 C                    -0.276505
      8 C                    -0.674365
      9 C                     0.296261
     10 C                    -0.098529
     11 C                    -0.472093
     12 C                     0.284401
     13 C                    -0.826419
     14 H                     0.460975
     15 H                     0.419633
     16 H                     0.204425
     17 H                     0.226621
     18 H                     0.207464
     19 H                     0.181113
     20 H                     0.199299
     21 H                     0.200360
     22 H                     0.197467
     23 H                     0.352662
     24 Cl                    0.256983
     25 H                     0.252311
     26 S                     3.085103
     27 H                     0.298667
     28 F                    -0.641701
     29 F                    -0.647373
     30 F                    -0.642927
     31 F                    -0.646946
     32 F                    -0.634836
  ----------------------------------------
  Sum of atomic charges =     0.000000

                    Cartesian Multipole Moments
 -----------------------------------------------------------------
    Charge (ESU x 10^10)
                -0.0000
    Dipole Moment (Debye)
         X      -6.4334      Y      -4.9930      Z      -1.0373
       Tot       8.2095
    Quadrupole Moments (Debye-Ang)
        XX    -113.5561     XY       5.2255     YY    -133.7894
        XZ       4.0196     YZ       0.6313     ZZ    -134.1102

 Total job time:  187780.23s(wall), 645560.32s(cpu)
        *  Thank you very much for using Q-Chem.  Have a nice day.  *
