 Gaussian 09, Revision E.01,
 Gaussian 09:  ES64L-G09RevE.01 30-Nov-2015

 -------------------------------------------------------------
 # MP2/Gen 6D SCF=Tight INT(grid=ultrafine) maxdisk=3489660928
 -------------------------------------------------------------

 -------------------
 CP22_c2.MP2_6-31pGd
 -------------------
 Symbolic Z-matrix:
 Charge =  0 Multiplicity = 1

                         Standard orientation:
 ---------------------------------------------------------------------
 Center     Atomic      Atomic             Coordinates (Angstroms)
 Number     Number       Type             X           Y           Z
 ---------------------------------------------------------------------
      1          6           0       -0.570594    0.213779   -0.044558
      2          7           0       -1.803515   -0.441491   -0.085774
      3          6           0       -3.067346    0.136140    0.021984
      4          8           0       -3.251877    1.319417    0.202685
      5          7           0       -4.085454   -0.776384   -0.067694
      6          6           0       -5.463676   -0.301089   -0.080100
      7          6           0       -6.429522   -1.469688    0.048680
      8          6           0       -7.880280   -0.998352    0.046541
      9          6           0        0.574573   -0.590638   -0.028006
     10          6           0        1.817901    0.009758   -0.008141
     11          6           0        1.993744    1.383533   -0.004110
     12          6           0        0.840124    2.154537   -0.021143
     13          6           0       -0.434160    1.605727   -0.041477
     14          1           0       -1.758265   -1.448416   -0.042248
     15          1           0       -3.906978   -1.652111   -0.537667
     16          1           0       -5.666651    0.268672   -0.994479
     17          1           0       -5.581896    0.388898    0.756828
     18          1           0       -6.208609   -2.014443    0.971315
     19          1           0       -6.271070   -2.170651   -0.779515
     20          1           0       -8.071629   -0.315862    0.877852
     21          1           0       -8.569126   -1.838922    0.140911
     22          1           0       -8.123029   -0.470917   -0.878980
     23          1           0        0.486768   -1.670136   -0.031895
     24         17           0        0.998658    3.885460   -0.017379
     25          1           0       -1.304593    2.243158   -0.046128
     26         16           0        3.284817   -1.050560    0.012799
     27          1           0        2.972933    1.840785    0.012218
     28          9           0        2.690790   -2.010934   -1.145117
     29          9           0        4.028289   -0.160273   -1.108065
     30          9           0        2.647833   -2.026417    1.133850
     31          9           0        3.984679   -0.175115    1.172436
     32          9           0        4.584087   -1.993524    0.031033
 ---------------------------------------------------------------------

 SCF Done:  E(RHF) =  -1923.51782560     A.U. after   18 cycles
 E2 =    -0.3000410731D+01 EUMP2 =    -0.19265182363271D+04

 The electronic state is 1-A.
 Alpha  occ. eigenvalues -- -104.84271 -92.40887 -26.36330 -26.36324 -26.36321
 Alpha  occ. eigenvalues --  -26.36318 -26.36315 -20.55358 -15.63642 -15.61134
 Alpha  occ. eigenvalues --  -11.41226 -11.33264 -11.33185 -11.31839 -11.28471
 Alpha  occ. eigenvalues --  -11.28095 -11.27778 -11.26924 -11.24649 -11.23328
 Alpha  occ. eigenvalues --  -10.57511  -9.34927  -8.04454  -8.04109  -8.04109
 Alpha  occ. eigenvalues --   -7.03802  -7.03788  -7.03452  -1.76264  -1.66337
 Alpha  occ. eigenvalues --   -1.66239  -1.63327  -1.61870  -1.43034  -1.29424
 Alpha  occ. eigenvalues --   -1.25272  -1.21494  -1.15728  -1.10319  -1.07520
 Alpha  occ. eigenvalues --   -1.04220  -1.02769  -0.95380  -0.90886  -0.88140
 Alpha  occ. eigenvalues --   -0.86881  -0.86522  -0.84183  -0.83568  -0.80209
 Alpha  occ. eigenvalues --   -0.78382  -0.77839  -0.76356  -0.75408  -0.72791
 Alpha  occ. eigenvalues --   -0.71681  -0.69662  -0.69144  -0.68769  -0.68499
 Alpha  occ. eigenvalues --   -0.68208  -0.67637  -0.67466  -0.65907  -0.65460
 Alpha  occ. eigenvalues --   -0.65178  -0.65040  -0.63530  -0.63029  -0.61962
 Alpha  occ. eigenvalues --   -0.60115  -0.58849  -0.57430  -0.56949  -0.55885
 Alpha  occ. eigenvalues --   -0.53896  -0.52690  -0.51241  -0.50362  -0.49720
 Alpha  occ. eigenvalues --   -0.46809  -0.46624  -0.46429  -0.41983  -0.37089
 Alpha  occ. eigenvalues --   -0.33836
 Alpha virt. eigenvalues --    0.04226   0.06811   0.07450   0.07519   0.07971
 Alpha virt. eigenvalues --    0.08537   0.08611   0.09406   0.09770   0.10330
 Alpha virt. eigenvalues --    0.10500   0.10661   0.11741   0.11944   0.12417

 Mulliken charges:
               1
     1  C    0.246492
     2  N   -0.805366
     3  C    0.714483
     4  O   -0.634303
     5  N   -0.696754
     6  C   -0.085850
     7  C   -0.274787
     8  C   -0.673770
     9  C   -0.551589
    10  C   -0.790855
    11  C   -0.231667
    12  C    0.291708
    13  C    0.180798
    14  H    0.461574
    15  H    0.420018
    16  H    0.203576
    17  H    0.226297
    18  H    0.207867
    19  H    0.181805
    20  H    0.198951
    21  H    0.200717
    22  H    0.197228
    23  H    0.264304
    24  Cl   0.258627
    25  H    0.338613
    26  S    3.067161
    27  H    0.300011
    28  F   -0.650049
    29  F   -0.640887
    30  F   -0.651831
    31  F   -0.640712
    32  F   -0.631811
 Sum of Mulliken charges =  -0.00000

 Dipole moment (field-independent basis, Debye):
    X=             -5.1719    Y=             -3.4384    Z=             -0.9385  Tot=              6.2810
 Quadrupole moment (field-independent basis, Debye-Ang):
   XX=           -126.0180   YY=           -133.8976   ZZ=           -134.1632
   XY=             19.1046   XZ=              3.5000   YZ=              0.7779

 Normal termination of Gaussian 09 at Sat Nov 30 15:09:49 2019.
