 Gaussian 09, Revision E.01,

 ----------------------------------------------------------------------
 # M062X/6-311+G* SCF=Tight INT(grid=ultrafine) OPT IOP(2/17=4) Empiric
 alDispersion=GD3 maxdisk=2684354560
 ----------------------------------------------------------------------

 ---------------------------
 CP22.M062X_6-311pGd_opt_GD3
 ---------------------------
 Symbolic Z-matrix:
 Charge =  0 Multiplicity = 1

 SCF Done:  E(RM062X) =  -1930.41621536     A.U. after   15 cycles
 Optimization completed.
    -- Stationary point found.
 Normal termination of Gaussian 09 at Thu Nov 14 09:39:47 2019.
 Gaussian 09:  ES64L-G09RevE.01 30-Nov-2015

 ----------------------------------------------------------------------
 # M062X/6-311+G* SCF=Tight INT(grid=ultrafine) EmpiricalDispersion=GD3
  Freq=Noraman maxdisk=2684354560 geom=check guess=read IOP(2/17=4)
 ----------------------------------------------------------------------

 ---------------------------
 CP22.M062X_6-311pGd_opt_GD3
 ---------------------------
 Structure from the checkpoint file:  "CP22.M062X_6-311pGd_opt_GD3.chk"
 Charge =  0 Multiplicity = 1

                         Standard orientation:
 ---------------------------------------------------------------------
 Center     Atomic      Atomic             Coordinates (Angstroms)
 Number     Number       Type             X           Y           Z
 ---------------------------------------------------------------------
      1          6           0       -0.468079    1.140956    0.047375
      2          7           0       -1.863024    1.182483    0.104861
      3          6           0       -2.739656    0.106592   -0.033164
      4          8           0       -2.379969   -1.027921   -0.253787
      5          7           0       -4.057207    0.468551    0.076591
      6          6           0       -5.076327   -0.574587    0.063365
      7          6           0       -6.465507    0.040248   -0.018764
      8          6           0       -7.549854   -1.032445   -0.044686
      9          6           0        0.265400   -0.050745    0.044039
     10          6           0        1.646151    0.038953    0.012303
     11          6           0        2.348687    1.232420   -0.016836
     12          6           0        1.591942    2.394837   -0.012779
     13          6           0        0.208798    2.364763    0.017805
     14          1           0       -2.269135    2.105534    0.076636
     15          1           0       -4.281356    1.308530    0.590429
     16          1           0       -4.987311   -1.211129    0.951446
     17          1           0       -4.885667   -1.210207   -0.802737
     18          1           0       -6.527119    0.663863   -0.915522
     19          1           0       -6.626174    0.702568    0.840281
     20          1           0       -7.427669   -1.691861   -0.907060
     21          1           0       -8.544390   -0.588125   -0.103655
     22          1           0       -7.514297   -1.651792    0.854656
     23          1           0       -0.239552   -1.003494    0.056777
     24         17           0        2.399872    3.933760   -0.048822
     25          1           0       -0.342114    3.298903    0.019651
     26         16           0        2.595347   -1.506596    0.009786
     27          1           0        3.428500    1.268528   -0.042470
     28          9           0        1.636836   -2.177736   -1.097561
     29          9           0        3.576293   -0.977919   -1.160870
     30          9           0        1.691312   -2.145322    1.182673
     31          9           0        3.631032   -0.945838    1.117505
     32          9           0        3.442855   -2.870911    0.009713
 ---------------------------------------------------------------------

 SCF Done:  E(RM062X) =  -1930.41621536     A.U. after    2 cycles

 The electronic state is 1-A.
 Alpha  occ. eigenvalues -- -102.69573 -90.27851 -25.28160 -25.28158 -25.28150
 Alpha  occ. eigenvalues --  -25.28149 -25.28025 -19.61120 -14.81384 -14.79032
 Alpha  occ. eigenvalues --  -10.69855 -10.63776 -10.63515 -10.61751 -10.58673
 Alpha  occ. eigenvalues --  -10.58610 -10.58503 -10.57858 -10.55672 -10.54165
 Alpha  occ. eigenvalues --   -9.83840  -8.60148  -7.56358  -7.55670  -7.55661
 Alpha  occ. eigenvalues --   -6.52578  -6.52569  -6.52135  -1.50132  -1.39995
 Alpha  occ. eigenvalues --   -1.39923  -1.37022  -1.35471  -1.20638  -1.09040
 Alpha  occ. eigenvalues --   -1.05559  -1.02554  -0.97869  -0.93461  -0.90420
 Alpha  occ. eigenvalues --   -0.87731  -0.86205  -0.80277  -0.76827  -0.74856
 Alpha  occ. eigenvalues --   -0.73458  -0.73332  -0.70765  -0.69794  -0.68879
 Alpha  occ. eigenvalues --   -0.65670  -0.64026  -0.62232  -0.62043  -0.61665
 Alpha  occ. eigenvalues --   -0.60578  -0.58012  -0.57978  -0.56680  -0.55600
 Alpha  occ. eigenvalues --   -0.55365  -0.55206  -0.55116  -0.54793  -0.54515
 Alpha  occ. eigenvalues --   -0.53367  -0.52411  -0.52306  -0.51400  -0.51256
 Alpha  occ. eigenvalues --   -0.50445  -0.50321  -0.49025  -0.47730  -0.47625
 Alpha  occ. eigenvalues --   -0.45126  -0.44490  -0.43943  -0.42416  -0.41743
 Alpha  occ. eigenvalues --   -0.40149  -0.39972  -0.37286  -0.34560  -0.33489
 Alpha  occ. eigenvalues --   -0.30238
 Alpha virt. eigenvalues --   -0.02756  -0.01895  -0.01578  -0.00805   0.00780
 Alpha virt. eigenvalues --    0.01613   0.02020   0.02583   0.02832   0.03990
 Alpha virt. eigenvalues --    0.04226   0.04528   0.04874   0.05529   0.05697

 Mulliken charges:
               1
     1  C   -1.293274
     2  N   -0.358553
     3  C    0.006290
     4  O   -0.319880
     5  N   -0.270263
     6  C   -0.525152
     7  C   -0.111788
     8  C   -1.020822
     9  C   -0.005179
    10  C   -1.121090
    11  C   -0.059481
    12  C    0.269972
    13  C    0.173298
    14  H    0.340278
    15  H    0.325156
    16  H    0.264184
    17  H    0.271949
    18  H    0.263117
    19  H    0.232643
    20  H    0.262897
    21  H    0.270237
    22  H    0.260960
    23  H    0.346973
    24  Cl   0.424208
    25  H    0.253636
    26  S    0.499310
    27  H    0.317445
    28  F    0.079668
    29  F    0.057802
    30  F    0.075374
    31  F    0.053510
    32  F    0.036575
 Sum of Mulliken charges =  -0.00000

 Dipole moment (field-independent basis, Debye):
    X=             -6.6401    Y=              5.0121    Z=              0.9726  Tot=              8.3760
 Quadrupole moment (field-independent basis, Debye-Ang):
   XX=           -112.0115   YY=           -132.4794   ZZ=           -134.0583
   XY=             -3.7459   XZ=             -3.8130   YZ=              0.6674

  Exact polarizability: 227.172  14.779 185.769  -1.805   0.650 108.060
 Approx polarizability: 232.825   8.837 228.613  -2.659   2.031 144.442

                      1                      2                      3
                      A                      A                      A
 Frequencies --      9.9640                17.6622                35.4242
 Red. masses --      2.5177                 6.2522                 9.3421
 Frc consts  --      0.0001                 0.0011                 0.0069
 IR Inten    --      3.5988                 0.5224                 1.1890

                      4                      5                      6
                      A                      A                      A
 Frequencies --     46.9498                56.0559                75.5603
 Red. masses --      4.7407                 4.0843                 3.2651
 Frc consts  --      0.0062                 0.0076                 0.0110
 IR Inten    --      1.1194                 4.8890                 1.1257

                      7                      8                      9
                      A                      A                      A
 Frequencies --    101.6845               108.6760               147.0872
 Red. masses --      7.3160                 6.7089                 9.6283
 Frc consts  --      0.0446                 0.0467                 0.1227
 IR Inten    --      0.1068                 0.6972                 4.7134

                     10                     11                     12
                      A                      A                      A
 Frequencies --    181.1692               189.8949               194.1662
 Red. masses --      3.2017                 4.8651                 7.6999
 Frc consts  --      0.0619                 0.1034                 0.1710
 IR Inten    --      0.3911                 0.1530                 0.4211

                     13                     14                     15
                      A                      A                      A
 Frequencies --    232.9421               236.5012               241.5102
 Red. masses --      3.7284                 1.3790                 2.8319
 Frc consts  --      0.1192                 0.0454                 0.0973
 IR Inten    --     10.5273                 1.6701                 0.4841

                     16                     17                     18
                      A                      A                      A
 Frequencies --    269.8357               274.8754               316.1796
 Red. masses --      9.1380                 7.2745                 6.7474
 Frc consts  --      0.3920                 0.3238                 0.3974
 IR Inten    --      1.4996                 0.2950                 1.9157

                     19                     20                     21
                      A                      A                      A
 Frequencies --    337.2696               338.9611               357.3353
 Red. masses --      2.2245                18.6614                 1.9911
 Frc consts  --      0.1491                 1.2633                 0.1498
 IR Inten    --     77.9695                 0.0820                18.2897

                     22                     23                     24
                      A                      A                      A
 Frequencies --    389.1977               390.9716               447.1469
 Red. masses --     15.1684                11.7795                 4.8282
 Frc consts  --      1.3537                 1.0609                 0.5688
 IR Inten    --      3.7118                 1.1337                 6.9784

                     25                     26                     27
                      A                      A                      A
 Frequencies --    451.6669               455.4505               487.8924
 Red. masses --      3.5900                12.9364                 1.5234
 Frc consts  --      0.4315                 1.5810                 0.2137
 IR Inten    --     24.0281                 2.8312                96.4364

                     28                     29                     30
                      A                      A                      A
 Frequencies --    499.5583               537.8660               553.9828
 Red. masses --      5.5098                14.3217                13.1911
 Frc consts  --      0.8101                 2.4411                 2.3852
 IR Inten    --     10.0479                17.2322                 7.4926

                     31                     32                     33
                      A                      A                      A
 Frequencies --    565.7827               587.1554               599.7055
 Red. masses --      5.7412                18.2704                18.3226
 Frc consts  --      1.0828                 3.7111                 3.8825
 IR Inten    --      0.2228                97.0133                 0.2341

                     34                     35                     36
                      A                      A                      A
 Frequencies --    613.7315               650.7634               660.8025
 Red. masses --      5.2128                 8.2008                 8.9200
 Frc consts  --      1.1569                 2.0462                 2.2949
 IR Inten    --      0.4002                38.1007                12.8567

                     37                     38                     39
                      A                      A                      A
 Frequencies --    691.2056               754.6578               755.0233
 Red. masses --      2.5322                 3.8095                 1.5495
 Frc consts  --      0.7128                 1.2783                 0.5204
 IR Inten    --     16.3809               120.5296                32.9377

                     40                     41                     42
                      A                      A                      A
 Frequencies --    774.1375               811.0883               863.5430
 Red. masses --      4.3244                 6.5292                 2.4248
 Frc consts  --      1.5269                 2.5307                 1.0654
 IR Inten    --     17.8509                87.8645                55.8782

                     43                     44                     45
                      A                      A                      A
 Frequencies --    869.4459               873.2687               885.1025
 Red. masses --     12.1781                 3.6816                10.4766
 Frc consts  --      5.4239                 1.6542                 4.8357
 IR Inten    --    341.4609               368.6691               160.1559

                     46                     47                     48
                      A                      A                      A
 Frequencies --    885.9640               901.7605               915.6420
 Red. masses --      1.5372                 1.1901                 1.3788
 Frc consts  --      0.7109                 0.5702                 0.6811
 IR Inten    --      9.3346                 2.7410                20.6029

                     49                     50                     51
                      A                      A                      A
 Frequencies --    927.3878               971.4313              1012.1852
 Red. masses --      1.8798                 5.2843                 5.8912
 Frc consts  --      0.9525                 2.9381                 3.5561
 IR Inten    --     37.5943                52.5908                 9.9977

                     52                     53                     54
                      A                      A                      A
 Frequencies --   1047.7134              1078.8697              1147.5346
 Red. masses --      4.1502                 2.6631                 2.8403
 Frc consts  --      2.6842                 1.8263                 2.2037
 IR Inten    --     16.4471                21.6769                12.0240

                     55                     56                     57
                      A                      A                      A
 Frequencies --   1157.8462              1165.9362              1166.1934
 Red. masses --      1.5928                 2.0757                 1.9165
 Frc consts  --      1.2581                 1.6625                 1.5357
 IR Inten    --     20.0065                47.0468                18.2183

                     58                     59                     60
                      A                      A                      A
 Frequencies --   1181.9051              1232.8832              1278.5303
 Red. masses --      1.7147                 1.8376                 1.9770
 Frc consts  --      1.4113                 1.6457                 1.9041
 IR Inten    --      0.3777               311.1781                27.7629

                     61                     62                     63
                      A                      A                      A
 Frequencies --   1291.2347              1316.6063              1334.2188
 Red. masses --      1.3574                 1.8220                 1.1742
 Frc consts  --      1.3334                 1.8608                 1.2316
 IR Inten    --    113.1659                20.4354                26.4450

                     64                     65                     66
                      A                      A                      A
 Frequencies --   1348.4120              1352.8041              1424.4557
 Red. masses --      1.3146                 2.9497                 1.5160
 Frc consts  --      1.4083                 3.1805                 1.8124
 IR Inten    --      0.5409                70.0898                 0.3507

                     67                     68                     69
                      A                      A                      A
 Frequencies --   1432.2241              1458.0298              1510.0470
 Red. masses --      1.2972                 2.5619                 1.0648
 Frc consts  --      1.5678                 3.2088                 1.4305
 IR Inten    --      2.2899                73.4798                14.5467

                     70                     71                     72
                      A                      A                      A
 Frequencies --   1514.8105              1521.8836              1524.1725
 Red. masses --      3.3930                 1.0468                 1.0702
 Frc consts  --      4.5873                 1.4285                 1.4649
 IR Inten    --    319.4465                10.6823                 2.0397

                     73                     74                     75
                      A                      A                      A
 Frequencies --   1536.5946              1548.6657              1587.8114
 Red. masses --      1.1587                 1.6498                 2.2257
 Frc consts  --      1.6119                 2.3312                 3.3060
 IR Inten    --     15.0679               270.3705               654.8722

                     76                     77                     78
                      A                      A                      A
 Frequencies --   1659.8064              1679.1300              1824.3438
 Red. masses --      4.8647                 6.9593                 8.6812
 Frc consts  --      7.8962                11.5607                17.0234
 IR Inten    --     95.2605               165.5346               276.4467

                     79                     80                     81
                      A                      A                      A
 Frequencies --   3052.5439              3057.0998              3072.9147
 Red. masses --      1.0643                 1.0721                 1.0370
 Frc consts  --      5.8432                 5.9032                 5.7692
 IR Inten    --     18.9929                27.9793                27.9469

                     82                     83                     84
                      A                      A                      A
 Frequencies --   3099.7616              3134.7117              3143.9605
 Red. masses --      1.0953                 1.0977                 1.1022
 Frc consts  --      6.2008                 6.3553                 6.4192
 IR Inten    --     13.1888                 0.7455                44.4602

                     85                     86                     87
                      A                      A                      A
 Frequencies --   3151.0008              3219.8375              3265.8846
 Red. masses --      1.1021                 1.0921                 1.0936
 Frc consts  --      6.4470                 6.6709                 6.8723
 IR Inten    --     25.6619                 2.3611                 9.2918

                     88                     89                     90
                      A                      A                      A
 Frequencies --   3294.4697              3637.3425              3653.8685
 Red. masses --      1.0923                 1.0772                 1.0768
 Frc consts  --      6.9851                 8.3967                 8.4705
 IR Inten    --     31.7395                20.6021                33.1571

 - Thermochemistry -
 -------------------
 Temperature   298.150 Kelvin.  Pressure   1.00000 Atm.
 Atom     1 has atomic number  6 and mass  12.00000

 Molecular mass:   338.02790 amu.
 Principal axes and moments of inertia in atomic units:
                           1         2         3
     Eigenvalues --  4797.78272********************
           X            0.99987   0.01608  -0.00061
           Y           -0.01608   0.99987   0.00100
           Z            0.00062  -0.00099   1.00000
 This molecule is an asymmetric top.
 Rotational symmetry number  1.
 Warning -- assumption of classical behavior for rotation
           may cause significant error
 Rotational temperatures (Kelvin)      0.01805     0.00642     0.00494
 Rotational constants (GHZ):           0.37616     0.13371     0.10288
 Zero-point vibrational energy     602076.2 (Joules/Mol)
                                  143.89967 (Kcal/Mol)
 Warning -- explicit consideration of  34 degrees of freedom as
           vibrations may cause significant error
 Vibrational temperatures:     14.34    25.41    50.97    67.55    80.65
          (Kelvin)            108.71   146.30   156.36   211.63   260.66
                              273.22   279.36   335.15   340.27   347.48
                              388.23   395.48   454.91   485.26   487.69
                              514.13   559.97   562.52   643.34   649.85
                              655.29   701.97   718.75   773.87   797.06
                              814.03   844.78   862.84   883.02   936.30
                              950.75   994.49  1085.78  1086.31  1113.81
                             1166.97  1242.44  1250.94  1256.44  1273.46
                             1274.70  1297.43  1317.40  1334.30  1397.67
                             1456.31  1507.42  1552.25  1651.04  1665.88
                             1677.52  1677.89  1700.50  1773.84  1839.52
                             1857.80  1894.30  1919.64  1940.06  1946.38
                             2049.47  2060.65  2097.78  2172.62  2179.47
                             2189.65  2192.94  2210.81  2228.18  2284.50
                             2388.09  2415.89  2624.82  4391.92  4398.48
                             4421.23  4459.86  4510.15  4523.45  4533.58
                             4632.62  4698.87  4740.00  5233.32  5257.10

 Zero-point correction=                           0.229319 (Hartree/Particle)
 Thermal correction to Energy=                    0.249521
 Thermal correction to Enthalpy=                  0.250465
 Thermal correction to Gibbs Free Energy=         0.176777
 Sum of electronic and zero-point Energies=          -1930.186897
 Sum of electronic and thermal Energies=             -1930.166694
 Sum of electronic and thermal Enthalpies=           -1930.165750
 Sum of electronic and thermal Free Energies=        -1930.239438

                     E (Thermal)             CV                S
                      KCal/Mol        Cal/Mol-Kelvin    Cal/Mol-Kelvin
 Total                  156.577             74.474            155.089
 Electronic               0.000              0.000              0.000
 Translational            0.889              2.981             43.349
 Rotational               0.889              2.981             35.384
 Vibrational            154.799             68.513             76.357
 Vibration     1          0.593              1.987              8.018
 Vibration     2          0.593              1.986              6.881
 Vibration     3          0.594              1.982              5.500
 Vibration     4          0.595              1.979              4.942
 Vibration     5          0.596              1.975              4.591
 Vibration     6          0.599              1.965              4.003
 Vibration     7          0.604              1.948              3.422
 Vibration     8          0.606              1.942              3.292
 Vibration     9          0.617              1.906              2.710
 Vibration    10          0.630              1.865              2.316
 Vibration    11          0.633              1.854              2.229
 Vibration    12          0.635              1.848              2.188
 Vibration    13          0.654              1.791              1.856
 Vibration    14          0.655              1.785              1.829
 Vibration    15          0.658              1.777              1.792
 Vibration    16          0.674              1.729              1.597
 Vibration    17          0.677              1.720              1.565
 Vibration    18          0.703              1.643              1.330
 Vibration    19          0.718              1.601              1.225
 Vibration    20          0.719              1.598              1.217
 Vibration    21          0.733              1.560              1.134
 Vibration    22          0.757              1.493              1.003
 Vibration    23          0.759              1.489              0.996
 Vibration    24          0.806              1.367              0.804
 Vibration    25          0.810              1.357              0.791
 Vibration    26          0.814              1.349              0.779
 Vibration    27          0.844              1.277              0.689
 Vibration    28          0.855              1.251              0.659
 Vibration    29          0.893              1.166              0.570
 Vibration    30          0.909              1.131              0.536
 Vibration    31          0.922              1.105              0.512
 Vibration    32          0.944              1.059              0.472
 Vibration    33          0.958              1.032              0.450
 Vibration    34          0.973              1.003              0.427

 Optimization completed on the basis of negligible forces.
    -- Stationary point found.
 Normal termination of Gaussian 09 at Thu Nov 14 11:08:56 2019.
