 Gaussian 09, Revision E.01,
 Gaussian 09:  ES64L-G09RevE.01 30-Nov-2015

 -------------------------------------------------------------
 # MP2/Gen 5D SCF=Tight INT(grid=ultrafine) maxdisk=3489660928
 -------------------------------------------------------------

 ----------------------
 CP22_c2.MP2_GTMP2LARGE
 ----------------------
 Symbolic Z-matrix:
 Charge =  0 Multiplicity = 1

                         Standard orientation:
 ---------------------------------------------------------------------
 Center     Atomic      Atomic             Coordinates (Angstroms)
 Number     Number       Type             X           Y           Z
 ---------------------------------------------------------------------
      1          6           0       -0.570594    0.213779   -0.044558
      2          7           0       -1.803515   -0.441491   -0.085774
      3          6           0       -3.067346    0.136140    0.021984
      4          8           0       -3.251877    1.319417    0.202685
      5          7           0       -4.085454   -0.776384   -0.067694
      6          6           0       -5.463676   -0.301089   -0.080100
      7          6           0       -6.429522   -1.469688    0.048680
      8          6           0       -7.880280   -0.998352    0.046541
      9          6           0        0.574573   -0.590638   -0.028006
     10          6           0        1.817901    0.009758   -0.008141
     11          6           0        1.993744    1.383533   -0.004110
     12          6           0        0.840124    2.154537   -0.021143
     13          6           0       -0.434160    1.605727   -0.041477
     14          1           0       -1.758265   -1.448416   -0.042248
     15          1           0       -3.906978   -1.652111   -0.537667
     16          1           0       -5.666651    0.268672   -0.994479
     17          1           0       -5.581896    0.388898    0.756828
     18          1           0       -6.208609   -2.014443    0.971315
     19          1           0       -6.271070   -2.170651   -0.779515
     20          1           0       -8.071629   -0.315862    0.877852
     21          1           0       -8.569126   -1.838922    0.140911
     22          1           0       -8.123029   -0.470917   -0.878980
     23          1           0        0.486768   -1.670136   -0.031895
     24         17           0        0.998658    3.885460   -0.017379
     25          1           0       -1.304593    2.243158   -0.046128
     26         16           0        3.284817   -1.050560    0.012799
     27          1           0        2.972933    1.840785    0.012218
     28          9           0        2.690790   -2.010934   -1.145117
     29          9           0        4.028289   -0.160273   -1.108065
     30          9           0        2.647833   -2.026417    1.133850
     31          9           0        3.984679   -0.175115    1.172436
     32          9           0        4.584087   -1.993524    0.031033
 ---------------------------------------------------------------------

 SCF Done:  E(RHF) =  -1923.94979494     A.U. after   15 cycles
 E2 =    -0.3911163468D+01 EUMP2 =    -0.19278609584036D+04

 The electronic state is 1-A.
 Alpha  occ. eigenvalues -- -104.85366 -92.37163 -26.34753 -26.34749 -26.34744
 Alpha  occ. eigenvalues --  -26.34740 -26.34657 -20.53623 -15.62304 -15.59854
 Alpha  occ. eigenvalues --  -11.40138 -11.32429 -11.32369 -11.30861 -11.27450
 Alpha  occ. eigenvalues --  -11.27225 -11.27062 -11.26009 -11.24112 -11.22807
 Alpha  occ. eigenvalues --  -10.57806  -9.31453  -8.04584  -8.04410  -8.04407
 Alpha  occ. eigenvalues --   -7.00338  -7.00326  -7.00005  -1.75330  -1.65729
 Alpha  occ. eigenvalues --   -1.65635  -1.62736  -1.61377  -1.42443  -1.28920
 Alpha  occ. eigenvalues --   -1.24832  -1.20931  -1.15135  -1.09592  -1.07129
 Alpha  occ. eigenvalues --   -1.03597  -1.02233  -0.95032  -0.90286  -0.87637
 Alpha  occ. eigenvalues --   -0.86359  -0.86018  -0.83749  -0.83258  -0.79783
 Alpha  occ. eigenvalues --   -0.78242  -0.77491  -0.76204  -0.75135  -0.72411
 Alpha  occ. eigenvalues --   -0.71280  -0.69616  -0.69215  -0.68696  -0.68434
 Alpha  occ. eigenvalues --   -0.67985  -0.67503  -0.67345  -0.65679  -0.65195
 Alpha  occ. eigenvalues --   -0.64844  -0.64757  -0.63377  -0.62786  -0.61569
 Alpha  occ. eigenvalues --   -0.59769  -0.58664  -0.57223  -0.56559  -0.55699
 Alpha  occ. eigenvalues --   -0.53543  -0.52454  -0.51125  -0.50166  -0.49594
 Alpha  occ. eigenvalues --   -0.46661  -0.46498  -0.46290  -0.42002  -0.36857
 Alpha  occ. eigenvalues --   -0.33689
 Alpha virt. eigenvalues --    0.02436   0.03871   0.05076   0.05197   0.05984
 Alpha virt. eigenvalues --    0.06013   0.07180   0.07450   0.07869   0.08259
 Alpha virt. eigenvalues --    0.08367   0.09287   0.09515   0.10057   0.10406

 Mulliken charges:
               1
     1  C    0.284488
     2  N   -0.324859
     3  C    0.472191
     4  O   -0.516968
     5  N   -0.165400
     6  C   -0.271894
     7  C    0.332664
     8  C   -0.490913
     9  C   -0.653466
    10  C   -0.604656
    11  C   -0.145695
    12  C    0.706422
    13  C   -0.224692
    14  H    0.192239
    15  H    0.182567
    16  H    0.105795
    17  H    0.101428
    18  H    0.064001
    19  H    0.017643
    20  H    0.063646
    21  H    0.084240
    22  H    0.058371
    23  H    0.161052
    24  Cl  -0.212839
    25  H    0.253060
    26  S    2.651094
    27  H    0.172437
    28  F   -0.480741
    29  F   -0.471704
    30  F   -0.476942
    31  F   -0.468381
    32  F   -0.394187
 Sum of Mulliken charges =  -0.00000

 Dipole moment (field-independent basis, Debye):
    X=             -5.1721    Y=             -3.3339    Z=             -0.8958  Tot=              6.2184
 Quadrupole moment (field-independent basis, Debye-Ang):
   XX=           -124.7751   YY=           -132.7320   ZZ=           -132.9336
   XY=             18.7245   XZ=              3.3353   YZ=              0.7184

 Normal termination of Gaussian 09 at Sat Nov 30 16:40:09 2019.
