 Gaussian 09, Revision E.01,

 ----------------------------------------------------------------------
 # M062X/6-311+G* SCF=Tight INT(grid=ultrafine) OPT IOP(2/17=4) Empiric
 alDispersion=GD3 SCRF=(SMD,Solvent=h2o) maxdisk=2684354560
 ----------------------------------------------------------------------

 ---------------------------------
 CP22.M062X_6-311pGd_opt_water_GD3
 ---------------------------------
 Symbolic Z-matrix:
 Charge =  0 Multiplicity = 1

 SCF Done:  E(RM062X) =  -1930.43550972     A.U. after   15 cycles
 Optimization completed.
    -- Stationary point found.
 Normal termination of Gaussian 09 at Thu Nov 14 09:37:50 2019.
 Gaussian 09:  ES64L-G09RevE.01 30-Nov-2015

 ----------------------------------------------------------------------
 # M062X/6-311+G* SCF=Tight INT(grid=ultrafine) SCRF=(SMD,Solvent=h2o)E
 mpiricalDispersion=GD3 Freq=Noraman maxdisk=2684354560 geom=check gues
 s=read IOP(2/17=4)
 ----------------------------------------------------------------------

 ---------------------------------
 CP22.M062X_6-311pGd_opt_water_GD3
 ---------------------------------
 Structure from the checkpoint file:  "CP22.M062X_6-311pGd_opt_water_GD3.chk"
 Charge =  0 Multiplicity = 1

                         Standard orientation:
 ---------------------------------------------------------------------
 Center     Atomic      Atomic             Coordinates (Angstroms)
 Number     Number       Type             X           Y           Z
 ---------------------------------------------------------------------
      1          6           0       -0.486857    1.104974   -0.163861
      2          7           0       -1.872039    1.116140   -0.303326
      3          6           0       -2.740958    0.069494   -0.042913
      4          8           0       -2.355778   -1.045424    0.313382
      5          7           0       -4.043073    0.367320   -0.222020
      6          6           0       -5.082063   -0.591306    0.137538
      7          6           0       -6.457306   -0.016610   -0.156965
      8          6           0       -7.555206   -1.000588    0.227960
      9          6           0        0.275184   -0.067907   -0.154949
     10          6           0        1.648864    0.053401   -0.032156
     11          6           0        2.325166    1.257560    0.066520
     12          6           0        1.535017    2.399152    0.036772
     13          6           0        0.157942    2.344456   -0.070296
     14          1           0       -2.285469    2.028480   -0.453829
     15          1           0       -4.318284    1.321311   -0.416472
     16          1           0       -4.998420   -0.845034    1.199037
     17          1           0       -4.928971   -1.511620   -0.431231
     18          1           0       -6.526461    0.226986   -1.221457
     19          1           0       -6.583278    0.920092    0.395425
     20          1           0       -7.454014   -1.937618   -0.325658
     21          1           0       -8.543677   -0.590446    0.013304
     22          1           0       -7.514965   -1.235934    1.294592
     23          1           0       -0.200775   -1.030502   -0.249777
     24         17           0        2.309789    3.955725    0.149358
     25          1           0       -0.426504    3.257623   -0.081163
     26         16           0        2.624165   -1.469427   -0.009241
     27          1           0        3.400705    1.323110    0.159646
     28          9           0        1.817015   -2.109852   -1.255458
     29          9           0        3.727699   -0.879948   -1.034083
     30          9           0        1.615139   -2.204631    1.017920
     31          9           0        3.526042   -0.974274    1.238808
     32          9           0        3.498589   -2.831243    0.011794
 ---------------------------------------------------------------------

 SCF Done:  E(RM062X) =  -1930.43550972     A.U. after    2 cycles

 The electronic state is 1-A.
 Alpha  occ. eigenvalues -- -102.69043 -90.28929 -25.29444 -25.29443 -25.29441
 Alpha  occ. eigenvalues --  -25.29440 -25.29322 -19.60299 -14.79391 -14.77257
 Alpha  occ. eigenvalues --  -10.68851 -10.63040 -10.62422 -10.61728 -10.58011
 Alpha  occ. eigenvalues --  -10.57516 -10.57307 -10.56684 -10.53062 -10.51755
 Alpha  occ. eigenvalues --   -9.83312  -8.61259  -7.55826  -7.55150  -7.55134
 Alpha  occ. eigenvalues --   -6.53680  -6.53669  -6.53216  -1.51208  -1.41187
 Alpha  occ. eigenvalues --   -1.41145  -1.38122  -1.36737  -1.19155  -1.07438
 Alpha  occ. eigenvalues --   -1.04081  -1.01787  -0.97954  -0.93568  -0.88792
 Alpha  occ. eigenvalues --   -0.86825  -0.85646  -0.78637  -0.76934  -0.74950
 Alpha  occ. eigenvalues --   -0.74700  -0.73023  -0.69086  -0.68745  -0.67619
 Alpha  occ. eigenvalues --   -0.65093  -0.64368  -0.63340  -0.62377  -0.61384
 Alpha  occ. eigenvalues --   -0.59565  -0.59329  -0.56739  -0.56494  -0.56344
 Alpha  occ. eigenvalues --   -0.56237  -0.56159  -0.55891  -0.54080  -0.53694
 Alpha  occ. eigenvalues --   -0.53475  -0.52742  -0.52609  -0.51996  -0.51470
 Alpha  occ. eigenvalues --   -0.50072  -0.49421  -0.47199  -0.46841  -0.45999
 Alpha  occ. eigenvalues --   -0.44841  -0.42992  -0.42135  -0.40031  -0.39752
 Alpha  occ. eigenvalues --   -0.39443  -0.39054  -0.36797  -0.33462  -0.32780
 Alpha  occ. eigenvalues --   -0.29063
 Alpha virt. eigenvalues --   -0.02934  -0.02238  -0.00332   0.00948   0.02126
 Alpha virt. eigenvalues --    0.02870   0.03149   0.03274   0.03972   0.04270
 Alpha virt. eigenvalues --    0.04504   0.04720   0.04924   0.05678   0.06098

 Mulliken charges:
               1
     1  C   -1.140211
     2  N   -0.354682
     3  C    0.041654
     4  O   -0.515213
     5  N   -0.368144
     6  C   -0.504615
     7  C   -0.158619
     8  C   -1.054844
     9  C   -0.037540
    10  C   -1.143341
    11  C   -0.079063
    12  C    0.284358
    13  C    0.083799
    14  H    0.440629
    15  H    0.441015
    16  H    0.283045
    17  H    0.274235
    18  H    0.268646
    19  H    0.265933
    20  H    0.269561
    21  H    0.280348
    22  H    0.270118
    23  H    0.352974
    24  Cl   0.398930
    25  H    0.322161
    26  S    0.538445
    27  H    0.357297
    28  F    0.049934
    29  F    0.044813
    30  F    0.049206
    31  F    0.047396
    32  F   -0.008226
 Sum of Mulliken charges =  -0.00000

 Dipole moment (field-independent basis, Debye):
    X=             -8.9081    Y=              8.4239    Z=             -1.4617  Tot=             12.3472
 Quadrupole moment (field-independent basis, Debye-Ang):
   XX=           -106.1077   YY=           -132.1347   ZZ=           -135.0304
   XY=             -9.7610   XZ=              3.7468   YZ=             -0.3379

  Exact polarizability: 290.467  16.039 259.623   7.078  -2.596 158.085
 Approx polarizability: 236.555  10.017 225.827   6.875  -2.016 146.337

                      1                      2                      3
                      A                      A                      A
 Frequencies --     20.1274                28.7746                41.4925
 Red. masses --      5.3013                 2.7942                 8.3361
 Frc consts  --      0.0013                 0.0014                 0.0085
 IR Inten    --      0.3126                 8.8530                 0.6091

                      4                      5                      6
                      A                      A                      A
 Frequencies --     47.0124                52.6436                65.7091
 Red. masses --      4.9825                 2.7573                 4.9953
 Frc consts  --      0.0065                 0.0045                 0.0127
 IR Inten    --     10.6632                32.9298                 0.7100

                      7                      8                      9
                      A                      A                      A
 Frequencies --     98.2164               112.3362               147.5304
 Red. masses --      7.9378                 7.9208                 5.5879
 Frc consts  --      0.0451                 0.0589                 0.0717
 IR Inten    --      0.2179                 0.1589                13.2226

                     10                     11                     12
                      A                      A                      A
 Frequencies --    157.3122               188.3584               195.6178
 Red. masses --      3.4104                 7.4142                 8.2761
 Frc consts  --      0.0497                 0.1550                 0.1866
 IR Inten    --     10.1192                 0.2986                 1.1882

                     13                     14                     15
                      A                      A                      A
 Frequencies --    233.1209               237.7421               247.4772
 Red. masses --      2.3516                 1.5283                 4.8397
 Frc consts  --      0.0753                 0.0509                 0.1746
 IR Inten    --      4.7814                 2.1296                 2.9177

                     16                     17                     18
                      A                      A                      A
 Frequencies --    270.2904               278.9149               312.8273
 Red. masses --      8.1694                 6.6726                 1.2774
 Frc consts  --      0.3516                 0.3058                 0.0737
 IR Inten    --      2.6829                 1.5881                90.1647

                     19                     20                     21
                      A                      A                      A
 Frequencies --    316.0730               339.0525               350.8956
 Red. masses --      6.1895                18.8326                 3.9089
 Frc consts  --      0.3643                 1.2755                 0.2836
 IR Inten    --      8.7296                 0.0054                21.4892

                     22                     23                     24
                      A                      A                      A
 Frequencies --    386.8824               390.9556               449.7497
 Red. masses --     15.7226                11.4762                13.4329
 Frc consts  --      1.3865                 1.0335                 1.6009
 IR Inten    --      9.0673                 5.4911                 1.4148

                     25                     26                     27
                      A                      A                      A
 Frequencies --    452.0206               458.2410               498.6584
 Red. masses --      7.4924                 5.0593                 6.3303
 Frc consts  --      0.9020                 0.6259                 0.9274
 IR Inten    --      0.2810                11.7635                11.1763

                     28                     29                     30
                      A                      A                      A
 Frequencies --    514.6256               534.1484               549.6835
 Red. masses --      1.2048                14.9045                12.9581
 Frc consts  --      0.1880                 2.5055                 2.3068
 IR Inten    --    273.1681                45.8493                22.1296

                     31                     32                     33
                      A                      A                      A
 Frequencies --    565.3948               574.4953               586.1331
 Red. masses --      5.3360                18.3553                18.9064
 Frc consts  --      1.0050                 3.5693                 3.8269
 IR Inten    --      1.0720               144.0432                 0.0290

                     34                     35                     36
                      A                      A                      A
 Frequencies --    611.0166               632.2954               657.4348
 Red. masses --      5.7281                15.2861                 6.7032
 Frc consts  --      1.2600                 3.6007                 1.7070
 IR Inten    --      6.7169               118.9741                23.2270

                     37                     38                     39
                      A                      A                      A
 Frequencies --    688.0298               733.0030               758.3121
 Red. masses --      2.4177                12.7048                 1.1619
 Frc consts  --      0.6743                 4.0219                 0.3936
 IR Inten    --     43.4764               309.6614                16.2055

                     40                     41                     42
                      A                      A                      A
 Frequencies --    778.5791               804.4711               810.1252
 Red. masses --      5.4331                 7.1917                23.9318
 Frc consts  --      1.9404                 2.7422                 9.2540
 IR Inten    --     18.0161               118.3752               654.4054

                     43                     44                     45
                      A                      A                      A
 Frequencies --    819.3173               856.0822               864.4353
 Red. masses --     21.9351                11.6500                 1.4801
 Frc consts  --      8.6755                 5.0305                 0.6516
 IR Inten    --    602.2670               192.6544                37.1444

                     46                     47                     48
                      A                      A                      A
 Frequencies --    894.3100               908.2663               920.0914
 Red. masses --      1.5153                 1.1584                 1.4272
 Frc consts  --      0.7140                 0.5631                 0.7119
 IR Inten    --     31.2545                 4.2624                21.7764

                     49                     50                     51
                      A                      A                      A
 Frequencies --    928.4522               966.5814              1012.0442
 Red. masses --      1.7978                 5.1858                 5.9003
 Frc consts  --      0.9131                 2.8546                 3.5606
 IR Inten    --     30.9555                64.6110                20.5859

                     52                     53                     54
                      A                      A                      A
 Frequencies --   1052.0849              1083.6886              1153.0477
 Red. masses --      4.0556                 2.6190                 1.8654
 Frc consts  --      2.6449                 1.8121                 1.4613
 IR Inten    --     28.9031                30.6516                26.9787

                     55                     56                     57
                      A                      A                      A
 Frequencies --   1156.5297              1171.9626              1177.2632
 Red. masses --      2.4056                 2.8181                 1.7826
 Frc consts  --      1.8958                 2.2805                 1.4556
 IR Inten    --     57.1365                24.6290                30.7951

                     58                     59                     60
                      A                      A                      A
 Frequencies --   1182.5692              1261.2884              1287.3129
 Red. masses --      1.7321                 1.9217                 1.2232
 Frc consts  --      1.4271                 1.8012                 1.1943
 IR Inten    --      4.0795               410.4889                 7.3497

                     61                     62                     63
                      A                      A                      A
 Frequencies --   1300.2920              1322.8491              1335.9971
 Red. masses --      1.9621                 1.8346                 1.0800
 Frc consts  --      1.9546                 1.8915                 1.1357
 IR Inten    --    213.4010                34.9166                 9.4985

                     64                     65                     66
                      A                      A                      A
 Frequencies --   1349.5849              1361.4876              1417.8689
 Red. masses --      1.4289                 3.0121                 1.2621
 Frc consts  --      1.5333                 3.2896                 1.4949
 IR Inten    --     49.3338               154.6667                 2.5966

                     67                     68                     69
                      A                      A                      A
 Frequencies --   1426.5629              1460.2254              1485.7950
 Red. masses --      1.6177                 2.7671                 1.0584
 Frc consts  --      1.9397                 3.4763                 1.3766
 IR Inten    --      8.4073               143.2460                 7.1167

                     70                     71                     72
                      A                      A                      A
 Frequencies --   1499.4529              1508.6409              1513.6098
 Red. masses --      1.0379                 1.0871                 3.3670
 Frc consts  --      1.3749                 1.4577                 4.5448
 IR Inten    --     13.8632                22.6073               525.1164

                     73                     74                     75
                      A                      A                      A
 Frequencies --   1528.2925              1574.7603              1583.6753
 Red. masses --      1.0908                 1.9597                 2.3705
 Frc consts  --      1.5011                 2.8633                 3.5028
 IR Inten    --     38.4732               928.6171               479.0587

                     76                     77                     78
                      A                      A                      A
 Frequencies --   1657.0017              1672.2968              1708.8343
 Red. masses --      5.6871                 5.3789                 3.5446
 Frc consts  --      9.1999                 8.8628                 6.0983
 IR Inten    --    356.9274                59.2868               730.9451

                     79                     80                     81
                      A                      A                      A
 Frequencies --   3067.8540              3068.2978              3075.2601
 Red. masses --      1.0374                 1.0605                 1.0620
 Frc consts  --      5.7526                 5.8825                 5.9173
 IR Inten    --     26.2618                 7.0634                95.0429

                     82                     83                     84
                      A                      A                      A
 Frequencies --   3101.7821              3122.6870              3137.8155
 Red. masses --      1.1010                 1.1052                 1.1044
 Frc consts  --      6.2408                 6.3497                 6.4068
 IR Inten    --      5.0001                25.3780               105.6207

                     85                     86                     87
                      A                      A                      A
 Frequencies --   3144.8084              3240.8852              3258.6827
 Red. masses --      1.1025                 1.0932                 1.0945
 Frc consts  --      6.4243                 6.7654                 6.8476
 IR Inten    --     46.4912                 2.7414                22.5052

                     88                     89                     90
                      A                      A                      A
 Frequencies --   3297.4447              3624.6053              3628.7929
 Red. masses --      1.0922                 1.0780                 1.0789
 Frc consts  --      6.9972                 8.3440                 8.3705
 IR Inten    --     37.5065                58.8972               218.9964

 - Thermochemistry -
 -------------------
 Temperature   298.150 Kelvin.  Pressure   1.00000 Atm.
 Atom     1 has atomic number  6 and mass  12.00000

 Molecular mass:   338.02790 amu.
 Principal axes and moments of inertia in atomic units:
                           1         2         3
     Eigenvalues --  4782.31205********************
           X            0.99987   0.01605  -0.00077
           Y           -0.01605   0.99987  -0.00284
           Z            0.00073   0.00286   1.00000
 This molecule is an asymmetric top.
 Rotational symmetry number  1.
 Warning -- assumption of classical behavior for rotation
           may cause significant error
 Rotational temperatures (Kelvin)      0.01811     0.00640     0.00494
 Rotational constants (GHZ):           0.37738     0.13331     0.10296
 Zero-point vibrational energy     600209.8 (Joules/Mol)
                                  143.45360 (Kcal/Mol)
 Warning -- explicit consideration of  34 degrees of freedom as
           vibrations may cause significant error
 Vibrational temperatures:     28.96    41.40    59.70    67.64    75.74
          (Kelvin)             94.54   141.31   161.63   212.26   226.34
                              271.01   281.45   335.41   342.06   356.06
                              388.89   401.30   450.09   454.76   487.82
                              504.86   556.64   562.50   647.09   650.36
                              659.31   717.46   740.43   768.52   790.87
                              813.48   826.57   843.31   879.12   909.73
                              945.90   989.92  1054.63  1091.04  1120.20
                             1157.45  1165.59  1178.81  1231.71  1243.73
                             1286.71  1306.79  1323.80  1335.83  1390.69
                             1456.10  1513.71  1559.18  1658.98  1663.99
                             1686.19  1693.82  1701.45  1814.71  1852.15
                             1870.83  1903.28  1922.20  1941.75  1958.87
                             2039.99  2052.50  2100.94  2137.73  2157.38
                             2170.60  2177.74  2198.87  2265.73  2278.55
                             2384.05  2406.06  2458.63  4413.95  4414.59
                             4424.61  4462.77  4492.84  4514.61  4524.67
                             4662.91  4688.51  4744.28  5214.99  5221.02

 Zero-point correction=                           0.228608 (Hartree/Particle)
 Thermal correction to Energy=                    0.248882
 Thermal correction to Enthalpy=                  0.249826
 Thermal correction to Gibbs Free Energy=         0.177003
 Sum of electronic and zero-point Energies=          -1930.206902
 Sum of electronic and thermal Energies=             -1930.186627
 Sum of electronic and thermal Enthalpies=           -1930.185683
 Sum of electronic and thermal Free Energies=        -1930.258506

                     E (Thermal)             CV                S
                      KCal/Mol        Cal/Mol-Kelvin    Cal/Mol-Kelvin
 Total                  156.176             74.813            153.269
 Electronic               0.000              0.000              0.000
 Translational            0.889              2.981             43.349
 Rotational               0.889              2.981             35.383
 Vibrational            154.399             68.852             74.538
 Vibration     1          0.593              1.986              6.622
 Vibration     2          0.593              1.984              5.912
 Vibration     3          0.594              1.981              5.187
 Vibration     4          0.595              1.979              4.939
 Vibration     5          0.596              1.977              4.716
 Vibration     6          0.597              1.971              4.278
 Vibration     7          0.604              1.950              3.489
 Vibration     8          0.607              1.939              3.228
 Vibration     9          0.617              1.905              2.704
 Vibration    10          0.621              1.894              2.582
 Vibration    11          0.633              1.856              2.244
 Vibration    12          0.636              1.846              2.174
 Vibration    13          0.654              1.790              1.855
 Vibration    14          0.656              1.783              1.820
 Vibration    15          0.661              1.767              1.748
 Vibration    16          0.674              1.728              1.594
 Vibration    17          0.679              1.713              1.540
 Vibration    18          0.701              1.649              1.347
 Vibration    19          0.703              1.643              1.330
 Vibration    20          0.719              1.597              1.217
 Vibration    21          0.728              1.573              1.162
 Vibration    22          0.755              1.498              1.012
 Vibration    23          0.759              1.490              0.996
 Vibration    24          0.809              1.361              0.797
 Vibration    25          0.811              1.356              0.790
 Vibration    26          0.816              1.343              0.771
 Vibration    27          0.854              1.253              0.661
 Vibration    28          0.870              1.218              0.623
 Vibration    29          0.889              1.174              0.578
 Vibration    30          0.905              1.140              0.545
 Vibration    31          0.921              1.106              0.513
 Vibration    32          0.931              1.086              0.496
 Vibration    33          0.943              1.061              0.474
 Vibration    34          0.970              1.009              0.431

 Optimization completed.
    -- Stationary point found.
 Normal termination of Gaussian 09 at Thu Nov 14 11:12:59 2019.
