 Gaussian 09, Revision E.01,

 ----------------------------------------------------------------------
 # M062X/6-311+G* SCF=Tight INT(grid=ultrafine) OPT IOP(2/17=4) Empiric
 alDispersion=GD3 SCRF=(SMD,Solvent=h2o) maxdisk=2684354560
 ----------------------------------------------------------------------

 ------------------------------------
 CP22_c2.M062X_6-311pGd_opt_water_GD3
 ------------------------------------
 Symbolic Z-matrix:
 Charge =  0 Multiplicity = 1

 SCF Done:  E(RM062X) =  -1930.43523837     A.U. after   15 cycles
 Optimization completed.
    -- Stationary point found.
 Normal termination of Gaussian 09 at Thu Nov 14 09:49:26 2019.
 Gaussian 09:  ES64L-G09RevE.01 30-Nov-2015

 ----------------------------------------------------------------------
 # M062X/6-311+G* SCF=Tight INT(grid=ultrafine) SCRF=(SMD,Solvent=h2o)E
 mpiricalDispersion=GD3 Freq=Noraman maxdisk=2684354560 geom=check gues
 s=read IOP(2/17=4)
 ----------------------------------------------------------------------

 ------------------------------------
 CP22_c2.M062X_6-311pGd_opt_water_GD3
 ------------------------------------
 Structure from the checkpoint file:  "CP22_c2.M062X_6-311pGd_opt_water_GD3.chk"
 Charge =  0 Multiplicity = 1

                         Standard orientation:
 ---------------------------------------------------------------------
 Center     Atomic      Atomic             Coordinates (Angstroms)
 Number     Number       Type             X           Y           Z
 ---------------------------------------------------------------------
      1          6           0        0.575761    0.245018   -0.267532
      2          7           0        1.814740   -0.371207   -0.441813
      3          6           0        3.034380    0.128280   -0.009723
      4          8           0        3.149966    1.233168    0.523858
      5          7           0        4.079773   -0.692645   -0.218785
      6          6           0        5.428998   -0.310239    0.180478
      7          6           0        6.413467   -1.414579   -0.165330
      8          6           0        7.831389   -1.032350    0.240787
      9          6           0       -0.552819   -0.578756   -0.184992
     10          6           0       -1.794013    0.011766   -0.048326
     11          6           0       -1.992154    1.382304    0.021836
     12          6           0       -0.851453    2.165464   -0.072238
     13          6           0        0.419585    1.633485   -0.225159
     14          1           0        1.783474   -1.355497   -0.679881
     15          1           0        3.944559   -1.582812   -0.678873
     16          1           0        5.446232   -0.112620    1.255934
     17          1           0        5.708810    0.617394   -0.327133
     18          1           0        6.371348   -1.611626   -1.241110
     19          1           0        6.113412   -2.336936    0.341608
     20          1           0        8.155273   -0.123583   -0.272947
     21          1           0        8.538252   -1.826363   -0.006723
     22          1           0        7.895933   -0.850077    1.316570
     23          1           0       -0.434223   -1.654715   -0.224588
     24         17           0       -1.026097    3.899429   -0.017736
     25          1           0        1.272728    2.287406   -0.322661
     26         16           0       -3.242176   -1.063693    0.058634
     27          1           0       -2.971085    1.828018    0.136239
     28          9           0       -2.515907   -2.088279    1.076818
     29          9           0       -3.854386   -0.254284    1.317131
     30          9           0       -2.766265   -1.974711   -1.189603
     31          9           0       -4.106117   -0.141646   -0.949936
     32          9           0       -4.540259   -2.024473    0.154639
 ---------------------------------------------------------------------

 SCF Done:  E(RM062X) =  -1930.43523837     A.U. after    2 cycles

 The electronic state is 1-A.
 Alpha  occ. eigenvalues -- -102.68947 -90.29029 -25.29525 -25.29523 -25.29514
 Alpha  occ. eigenvalues --  -25.29514 -25.29401 -19.60238 -14.79216 -14.77266
 Alpha  occ. eigenvalues --  -10.68789 -10.62982 -10.62310 -10.61801 -10.58046
 Alpha  occ. eigenvalues --  -10.57915 -10.57067 -10.56714 -10.53077 -10.51762
 Alpha  occ. eigenvalues --   -9.83216  -8.61356  -7.55729  -7.55056  -7.55039
 Alpha  occ. eigenvalues --   -6.53779  -6.53768  -6.53316  -1.51306  -1.41278
 Alpha  occ. eigenvalues --   -1.41228  -1.38215  -1.36818  -1.19081  -1.07300
 Alpha  occ. eigenvalues --   -1.04083  -1.01752  -0.97965  -0.93581  -0.88763
 Alpha  occ. eigenvalues --   -0.86804  -0.85714  -0.78670  -0.76910  -0.75017
 Alpha  occ. eigenvalues --   -0.74784  -0.72509  -0.70265  -0.68781  -0.66475
 Alpha  occ. eigenvalues --   -0.65196  -0.64763  -0.63418  -0.62527  -0.61395
 Alpha  occ. eigenvalues --   -0.59408  -0.59402  -0.56846  -0.56568  -0.56394
 Alpha  occ. eigenvalues --   -0.56331  -0.56229  -0.55916  -0.54226  -0.53749
 Alpha  occ. eigenvalues --   -0.53316  -0.52680  -0.52614  -0.52041  -0.51573
 Alpha  occ. eigenvalues --   -0.50137  -0.49317  -0.47134  -0.46822  -0.46025
 Alpha  occ. eigenvalues --   -0.44923  -0.42952  -0.42153  -0.40038  -0.39589
 Alpha  occ. eigenvalues --   -0.39366  -0.38890  -0.36851  -0.33585  -0.32622
 Alpha  occ. eigenvalues --   -0.29177
 Alpha virt. eigenvalues --   -0.03000  -0.02188  -0.00466   0.00992   0.02099
 Alpha virt. eigenvalues --    0.02897   0.03171   0.03512   0.03962   0.04086
 Alpha virt. eigenvalues --    0.04312   0.04721   0.05405   0.05440   0.06059

 Mulliken charges:
               1
     1  C   -0.834533
     2  N   -0.324486
     3  C   -0.007860
     4  O   -0.517527
     5  N   -0.410224
     6  C   -0.517077
     7  C   -0.159845
     8  C   -1.038051
     9  C    0.364724
    10  C   -1.509208
    11  C    0.092508
    12  C    0.362256
    13  C   -0.405628
    14  H    0.432073
    15  H    0.454111
    16  H    0.277942
    17  H    0.278203
    18  H    0.267959
    19  H    0.268280
    20  H    0.269387
    21  H    0.280360
    22  H    0.270018
    23  H    0.334007
    24  Cl   0.406573
    25  H    0.337675
    26  S    0.513823
    27  H    0.357099
    28  F    0.042662
    29  F    0.038799
    30  F    0.043690
    31  F    0.039002
    32  F   -0.006712
 Sum of Mulliken charges =  -0.00000

 Dipole moment (field-independent basis, Debye):
    X=              6.9060    Y=             -5.2656    Z=             -2.8109  Tot=              9.1280
 Quadrupole moment (field-independent basis, Debye-Ang):
   XX=           -125.3308   YY=           -133.2102   ZZ=           -134.7310
   XY=            -27.2024   XZ=             -7.6648   YZ=              0.5714

  Exact polarizability: 284.717 -12.278 261.106  -3.785  10.091 160.202
 Approx polarizability: 228.695  -9.810 230.948  -4.182   9.278 148.374

                      1                      2                      3
                      A                      A                      A
 Frequencies --     22.4206                36.8137                42.2812
 Red. masses --      5.1941                 8.4492                 3.1283
 Frc consts  --      0.0015                 0.0067                 0.0033
 IR Inten    --      0.1044                 3.1532                 6.1509

                      4                      5                      6
                      A                      A                      A
 Frequencies --     56.6123                57.6427                72.9599
 Red. masses --      4.9160                 3.4948                 3.6910
 Frc consts  --      0.0093                 0.0068                 0.0116
 IR Inten    --     15.3772                 7.6849                22.1416

                      7                      8                      9
                      A                      A                      A
 Frequencies --     97.4352               118.4983               138.9865
 Red. masses --      9.1411                 9.0524                 6.8315
 Frc consts  --      0.0511                 0.0749                 0.0778
 IR Inten    --      1.1139                 3.0972                 4.1304

                     10                     11                     12
                      A                      A                      A
 Frequencies --    147.6578               194.5861               198.0014
 Red. masses --      2.7385                 6.3735                 7.8365
 Frc consts  --      0.0352                 0.1422                 0.1810
 IR Inten    --     15.1174                 3.1252                 2.3095

                     13                     14                     15
                      A                      A                      A
 Frequencies --    216.1360               245.2889               248.1959
 Red. masses --      8.4234                 1.8206                 1.8500
 Frc consts  --      0.2318                 0.0645                 0.0671
 IR Inten    --      3.9983                 1.3485                 0.1386

                     16                     17                     18
                      A                      A                      A
 Frequencies --    272.0156               274.1206               328.5260
 Red. masses --      6.2334                 6.0496                 5.9598
 Frc consts  --      0.2717                 0.2678                 0.3790
 IR Inten    --      0.7614                 2.6845                 1.3323

                     19                     20                     21
                      A                      A                      A
 Frequencies --    338.2229               357.2836               358.4121
 Red. masses --     18.9135                 1.5980                 2.2265
 Frc consts  --      1.2748                 0.1202                 0.1685
 IR Inten    --      0.0179                80.3154                56.9587

                     22                     23                     24
                      A                      A                      A
 Frequencies --    385.9962               389.2970               434.4439
 Red. masses --     14.0256                11.3012                 7.8939
 Frc consts  --      1.2312                 1.0091                 0.8778
 IR Inten    --      6.6548                 5.2156                 4.2210

                     25                     26                     27
                      A                      A                      A
 Frequencies --    451.1953               468.8826               495.0430
 Red. masses --     18.7085                 4.2103                 6.4696
 Frc consts  --      2.2440                 0.5454                 0.9341
 IR Inten    --      0.0542                10.1445                13.9349

                     28                     29                     30
                      A                      A                      A
 Frequencies --    510.9037               533.3058               550.0440
 Red. masses --      1.2329                14.6225                12.0355
 Frc consts  --      0.1896                 2.4503                 2.1454
 IR Inten    --    261.7889                19.9986                23.3632

                     31                     32                     33
                      A                      A                      A
 Frequencies --    566.5331               575.0510               586.8675
 Red. masses --      5.4875                18.3310                18.9072
 Frc consts  --      1.0377                 3.5715                 3.8367
 IR Inten    --      3.7480               149.0343                 0.1411

                     34                     35                     36
                      A                      A                      A
 Frequencies --    606.8361               631.3309               655.8205
 Red. masses --      5.5669                13.0508                 7.2168
 Frc consts  --      1.2078                 3.0648                 1.8288
 IR Inten    --     11.1986               102.3985                21.4216

                     37                     38                     39
                      A                      A                      A
 Frequencies --    683.6818               738.9530               759.2941
 Red. masses --      2.4347                12.9999                 1.1595
 Frc consts  --      0.6705                 4.1824                 0.3939
 IR Inten    --     47.4910               357.6016                17.5035

                     40                     41                     42
                      A                      A                      A
 Frequencies --    778.5346               792.6672               811.1319
 Red. masses --      5.3185                 6.5007                24.0880
 Frc consts  --      1.8993                 2.4065                 9.3376
 IR Inten    --     12.9949                74.9465               654.8821

                     43                     44                     45
                      A                      A                      A
 Frequencies --    822.2993               861.8874               868.2544
 Red. masses --     20.6730                12.5176                 1.4857
 Frc consts  --      8.2359                 5.4786                 0.6599
 IR Inten    --    579.9923               331.6026                47.1412

                     46                     47                     48
                      A                      A                      A
 Frequencies --    891.8190               908.9288               909.7665
 Red. masses --      1.5622                 1.1580                 1.4113
 Frc consts  --      0.7321                 0.5636                 0.6882
 IR Inten    --     23.5257                 1.7241                10.5288

                     49                     50                     51
                      A                      A                      A
 Frequencies --    927.0942               967.1335              1011.8578
 Red. masses --      1.8222                 5.0631                 5.8656
 Frc consts  --      0.9228                 2.7902                 3.5383
 IR Inten    --      3.9174                77.3859                11.0709

                     52                     53                     54
                      A                      A                      A
 Frequencies --   1052.3295              1084.0361              1147.2145
 Red. masses --      4.1053                 2.6252                 2.2817
 Frc consts  --      2.6786                 1.8176                 1.7693
 IR Inten    --      6.2140                 6.6807                12.2103

                     55                     56                     57
                      A                      A                      A
 Frequencies --   1157.5349              1170.6945              1175.7370
 Red. masses --      1.7927                 2.2774                 2.3966
 Frc consts  --      1.4153                 1.8390                 1.9519
 IR Inten    --     67.6046                22.1758                 2.0611

                     58                     59                     60
                      A                      A                      A
 Frequencies --   1182.7353              1263.4320              1287.9028
 Red. masses --      1.6196                 1.8257                 1.1861
 Frc consts  --      1.3348                 1.7171                 1.1591
 IR Inten    --      0.0595               485.3851                 0.7349

                     61                     62                     63
                      A                      A                      A
 Frequencies --   1297.7161              1318.6068              1337.0869
 Red. masses --      2.0704                 2.3033                 1.0687
 Frc consts  --      2.0543                 2.3596                 1.1257
 IR Inten    --     98.3365               132.1215                 0.4741

                     64                     65                     66
                      A                      A                      A
 Frequencies --   1349.7479              1357.4791              1416.8891
 Red. masses --      1.4372                 2.3224                 1.2635
 Frc consts  --      1.5427                 2.5215                 1.4945
 IR Inten    --     47.9097               102.6861                 3.3880

                     67                     68                     69
                      A                      A                      A
 Frequencies --   1427.5118              1464.2888              1486.2857
 Red. masses --      1.6305                 2.8860                 1.0577
 Frc consts  --      1.9576                 3.6459                 1.3767
 IR Inten    --      9.7114               127.3369                 9.5914

                     70                     71                     72
                      A                      A                      A
 Frequencies --   1501.0588              1509.4926              1513.4079
 Red. masses --      1.0381                 1.1119                 3.0895
 Frc consts  --      1.3781                 1.4928                 4.1692
 IR Inten    --     13.9856                45.5564               440.0237

                     73                     74                     75
                      A                      A                      A
 Frequencies --   1529.8059              1565.3260              1582.5771
 Red. masses --      1.0905                 2.0179                 2.2931
 Frc consts  --      1.5037                 2.9131                 3.3839
 IR Inten    --     36.9901               238.4408              1089.7054

                     76                     77                     78
                      A                      A                      A
 Frequencies --   1651.2854              1677.9417              1703.3256
 Red. masses --      6.2268                 4.6907                 4.2988
 Frc consts  --     10.0036                 7.7811                 7.3484
 IR Inten    --    272.8349                15.1090               877.5063

                     79                     80                     81
                      A                      A                      A
 Frequencies --   3067.5722              3068.4568              3076.5711
 Red. masses --      1.0603                 1.0371                 1.0580
 Frc consts  --      5.8787                 5.7532                 5.9000
 IR Inten    --      9.5883                26.6201                93.9175

                     82                     83                     84
                      A                      A                      A
 Frequencies --   3098.4528              3118.8821              3137.6101
 Red. masses --      1.1040                 1.1073                 1.1043
 Frc consts  --      6.2445                 6.3462                 6.4054
 IR Inten    --      0.0311                35.7290                98.7040

                     85                     86                     87
                      A                      A                      A
 Frequencies --   3145.5612              3240.6381              3260.7823
 Red. masses --      1.1024                 1.0936                 1.0943
 Frc consts  --      6.4269                 6.7663                 6.8556
 IR Inten    --     46.5077                 9.8800                24.5986

                     88                     89                     90
                      A                      A                      A
 Frequencies --   3286.7415              3608.6129              3641.1556
 Red. masses --      1.0930                 1.0780                 1.0794
 Frc consts  --      6.9565                 8.2710                 8.4315
 IR Inten    --     12.6152               127.3076               158.5855

 - Thermochemistry -
 -------------------
 Temperature   298.150 Kelvin.  Pressure   1.00000 Atm.
 Atom     1 has atomic number  6 and mass  12.00000

 Molecular mass:   338.02790 amu.
 Principal axes and moments of inertia in atomic units:
                           1         2         3
     Eigenvalues --  4053.64538********************
           X            0.99974  -0.02281   0.00086
           Y            0.02281   0.99974   0.00231
           Z           -0.00091  -0.00229   1.00000
 This molecule is an asymmetric top.
 Rotational symmetry number  1.
 Warning -- assumption of classical behavior for rotation
           may cause significant error
 Rotational temperatures (Kelvin)      0.02137     0.00558     0.00462
 Rotational constants (GHZ):           0.44521     0.11625     0.09629
 Zero-point vibrational energy     600282.7 (Joules/Mol)
                                  143.47102 (Kcal/Mol)
 Warning -- explicit consideration of  34 degrees of freedom as
           vibrations may cause significant error
 Vibrational temperatures:     32.26    52.97    60.83    81.45    82.93
          (Kelvin)            104.97   140.19   170.49   199.97   212.45
                              279.97   284.88   310.97   352.92   357.10
                              391.37   394.40   472.67   486.63   514.05
                              515.67   555.36   560.11   625.07   649.17
                              674.62   712.26   735.08   767.31   791.39
                              815.11   827.37   844.37   873.10   908.34
                              943.58   983.66  1063.19  1092.45  1120.14
                             1140.47  1167.04  1183.10  1240.06  1249.22
                             1283.13  1307.74  1308.95  1333.88  1391.49
                             1455.84  1514.07  1559.68  1650.58  1665.43
                             1684.37  1691.62  1701.69  1817.79  1853.00
                             1867.12  1897.18  1923.77  1941.98  1953.11
                             2038.58  2053.87  2106.78  2138.43  2159.69
                             2171.82  2177.45  2201.05  2252.15  2276.97
                             2375.83  2414.18  2450.70  4413.55  4414.82
                             4426.49  4457.98  4487.37  4514.32  4525.76
                             4662.55  4691.53  4728.88  5191.98  5238.80

 Zero-point correction=                           0.228636 (Hartree/Particle)
 Thermal correction to Energy=                    0.248812
 Thermal correction to Enthalpy=                  0.249756
 Thermal correction to Gibbs Free Energy=         0.177664
 Sum of electronic and zero-point Energies=          -1930.206603
 Sum of electronic and thermal Energies=             -1930.186427
 Sum of electronic and thermal Enthalpies=           -1930.185482
 Sum of electronic and thermal Free Energies=        -1930.257574

                     E (Thermal)             CV                S
                      KCal/Mol        Cal/Mol-Kelvin    Cal/Mol-Kelvin
 Total                  156.132             74.760            151.730
 Electronic               0.000              0.000              0.000
 Translational            0.889              2.981             43.349
 Rotational               0.889              2.981             35.421
 Vibrational            154.354             68.798             72.960
 Vibration     1          0.593              1.985              6.407
 Vibration     2          0.594              1.982              5.424
 Vibration     3          0.595              1.980              5.149
 Vibration     4          0.596              1.975              4.572
 Vibration     5          0.596              1.974              4.536
 Vibration     6          0.599              1.967              4.072
 Vibration     7          0.603              1.951              3.505
 Vibration     8          0.609              1.934              3.125
 Vibration     9          0.615              1.914              2.818
 Vibration    10          0.617              1.905              2.702
 Vibration    11          0.635              1.847              2.184
 Vibration    12          0.637              1.843              2.152
 Vibration    13          0.645              1.816              1.991
 Vibration    14          0.660              1.771              1.764
 Vibration    15          0.662              1.766              1.743
 Vibration    16          0.675              1.725              1.583
 Vibration    17          0.676              1.721              1.570
 Vibration    18          0.712              1.619              1.267
 Vibration    19          0.719              1.599              1.221
 Vibration    20          0.732              1.560              1.134
 Vibration    21          0.733              1.558              1.129
 Vibration    22          0.755              1.500              1.016
 Vibration    23          0.757              1.493              1.003
 Vibration    24          0.795              1.395              0.844
 Vibration    25          0.810              1.358              0.792
 Vibration    26          0.826              1.319              0.741
 Vibration    27          0.851              1.261              0.671
 Vibration    28          0.866              1.226              0.631
 Vibration    29          0.888              1.176              0.580
 Vibration    30          0.905              1.140              0.544
 Vibration    31          0.922              1.104              0.511
 Vibration    32          0.931              1.085              0.495
 Vibration    33          0.944              1.060              0.473
 Vibration    34          0.966              1.017              0.438

 Normal termination of Gaussian 09 at Thu Nov 14 11:21:05 2019.
