 Gaussian 09, Revision E.01,

 ----------------------------------------------------------------------
 # M062X/6-311+G* SCF=Tight INT(grid=ultrafine) OPT IOP(2/17=4) Empiric
 alDispersion=GD3 SCRF=(SMD,Solvent=h2o) maxdisk=2684354560
 ----------------------------------------------------------------------

 -----------------------------------
 CP22CA.M062X_6-311pGd_opt_water_GD3
 -----------------------------------
 Symbolic Z-matrix:
 Charge =  0 Multiplicity = 1

 SCF Done:  E(RM062X) =  -1950.30106446     A.U. after   15 cycles
 Optimization completed.
    -- Stationary point found.
 Normal termination of Gaussian 09 at Thu Nov 14 17:35:01 2019.
 Gaussian 09:  ES64L-G09RevE.01 30-Nov-2015

 ----------------------------------------------------------------------
 # M062X/6-311+G* SCF=Tight INT(grid=ultrafine) SCRF=(SMD,Solvent=h2o)
 EmpiricalDispersion=GD3 Freq=Noraman maxdisk=2684354560 geom=check gue
 ss=read IOP(2/17=4)
 ----------------------------------------------------------------------

 -----------------------------------
 CP22CA.M062X_6-311pGd_opt_water_GD3
 -----------------------------------
 Structure from the checkpoint file:  "CP22CA.M062X_6-311pGd_opt_water_GD3.chk"
 Charge =  0 Multiplicity = 1

                         Standard orientation:
 ---------------------------------------------------------------------
 Center     Atomic      Atomic             Coordinates (Angstroms)
 Number     Number       Type             X           Y           Z
 ---------------------------------------------------------------------
      1          6           0       -0.511409    1.093046   -0.036182
      2          7           0       -1.906784    1.098955   -0.062590
      3          6           0       -2.741584    0.019641   -0.014260
      4          8           0       -2.397274   -1.143544    0.042906
      5          8           0       -4.013130    0.428346   -0.038989
      6          6           0       -5.014715   -0.611256    0.017390
      7          6           0       -6.369836    0.057378   -0.017006
      8          6           0       -7.479455   -0.986422    0.049056
      9          6           0        0.255212   -0.074595   -0.033925
     10          6           0        1.633726    0.059838   -0.006900
     11          6           0        2.303333    1.270504    0.014462
     12          6           0        1.504012    2.406641    0.006867
     13          6           0        0.123816    2.339635   -0.017243
     14          1           0       -2.356422    2.006568   -0.087921
     15          1           0       -4.871551   -1.180744    0.937922
     16          1           0       -4.873259   -1.276710   -0.836562
     17          1           0       -6.456208    0.646018   -0.934323
     18          1           0       -6.449230    0.749344    0.825839
     19          1           0       -7.420046   -1.678865   -0.794400
     20          1           0       -8.461689   -0.511919    0.023435
     21          1           0       -7.414525   -1.572198    0.969414
     22          1           0       -0.216247   -1.043931   -0.052672
     23         17           0        2.270440    3.969948    0.029754
     24          1           0       -0.468681    3.247723   -0.020847
     25         16           0        2.619595   -1.456680   -0.000093
     26          1           0        3.382155    1.346448    0.035343
     27          9           0        1.740221   -2.135725   -1.174387
     28          9           0        3.653153   -0.891737   -1.107522
     29          9           0        1.680018   -2.165073    1.108208
     30          9           0        3.592381   -0.920233    1.174660
     31          9           0        3.501653   -2.812957    0.006118
 ---------------------------------------------------------------------

 SCF Done:  E(RM062X) =  -1950.30106446     A.U. after    2 cycles

 The electronic state is 1-A.
 Alpha  occ. eigenvalues -- -102.69152 -90.29023 -25.29522 -25.29518 -25.29509
 Alpha  occ. eigenvalues --  -25.29505 -25.29389 -19.67799 -19.62330 -14.80430
 Alpha  occ. eigenvalues --  -10.71934 -10.63236 -10.62847 -10.61913 -10.59086
 Alpha  occ. eigenvalues --  -10.58254 -10.57801 -10.57616 -10.53103 -10.51919
 Alpha  occ. eigenvalues --   -9.83421  -8.61349  -7.55936  -7.55258  -7.55242
 Alpha  occ. eigenvalues --   -6.53771  -6.53761  -6.53309  -1.51303  -1.41272
 Alpha  occ. eigenvalues --   -1.41228  -1.38204  -1.36813  -1.25930  -1.16019
 Alpha  occ. eigenvalues --   -1.08348  -1.02452  -0.98111  -0.94003  -0.89908
 Alpha  occ. eigenvalues --   -0.87553  -0.85959  -0.80126  -0.77151  -0.75186
 Alpha  occ. eigenvalues --   -0.74777  -0.73892  -0.69521  -0.68285  -0.67343
 Alpha  occ. eigenvalues --   -0.65175  -0.64712  -0.63413  -0.62735  -0.61437
 Alpha  occ. eigenvalues --   -0.59931  -0.59456  -0.59400  -0.57264  -0.56564
 Alpha  occ. eigenvalues --   -0.56433  -0.56348  -0.56224  -0.55015  -0.53939
 Alpha  occ. eigenvalues --   -0.53524  -0.53455  -0.52672  -0.52204  -0.51090
 Alpha  occ. eigenvalues --   -0.50282  -0.50117  -0.47458  -0.47099  -0.45494
 Alpha  occ. eigenvalues --   -0.45035  -0.43577  -0.42759  -0.40352  -0.40173
 Alpha  occ. eigenvalues --   -0.40011  -0.39567  -0.38251  -0.38234  -0.33093
 Alpha  occ. eigenvalues --   -0.30101
 Alpha virt. eigenvalues --   -0.02973  -0.02462  -0.00688   0.00950   0.02200
 Alpha virt. eigenvalues --    0.02996   0.03167   0.03320   0.03956   0.04326
 Alpha virt. eigenvalues --    0.04651   0.04685   0.04922   0.05683   0.06186

 Mulliken charges:
               1
     1  C   -1.426329
     2  N   -0.497751
     3  C    0.054621
     4  O   -0.406795
     5  O   -0.073212
     6  C   -0.341824
     7  C   -0.168669
     8  C   -1.068423
     9  C    0.218319
    10  C   -0.945917
    11  C   -0.044606
    12  C    0.179204
    13  C   -0.133779
    14  H    0.493285
    15  H    0.290833
    16  H    0.290918
    17  H    0.271399
    18  H    0.271348
    19  H    0.272435
    20  H    0.284123
    21  H    0.272621
    22  H    0.356025
    23  Cl   0.405759
    24  H    0.324582
    25  S    0.565215
    26  H    0.357910
    27  F    0.055180
    28  F    0.045487
    29  F    0.053658
    30  F    0.047574
    31  F   -0.003194
 Sum of Mulliken charges =  -0.00000

 Dipole moment (field-independent basis, Debye):
    X=             -6.9686    Y=              5.9978    Z=             -0.1430  Tot=              9.1954
 Quadrupole moment (field-independent basis, Debye-Ang):
   XX=           -113.7240   YY=           -133.2485   ZZ=           -132.5618
   XY=              1.4610   XZ=              0.1872   YZ=              0.0674

  Exact polarizability: 274.012  18.430 255.786   1.152  -0.305 150.241
 Approx polarizability: 225.616  11.899 222.955   1.193  -0.211 139.239

                      1                      2                      3
                      A                      A                      A
 Frequencies --     11.9290                23.9742                38.0632
 Red. masses --      4.7781                 5.0380                 9.3571
 Frc consts  --      0.0004                 0.0017                 0.0080
 IR Inten    --      3.7839                 2.0541                 0.1197

                      4                      5                      6
                      A                      A                      A
 Frequencies --     50.5358                75.1979                86.5632
 Red. masses --      5.7722                 4.2838                 2.3804
 Frc consts  --      0.0087                 0.0143                 0.0105
 IR Inten    --      0.1729                 1.5487                 5.7657

                      7                      8                      9
                      A                      A                      A
 Frequencies --    106.3764               110.9169               150.9778
 Red. masses --      6.8402                 7.8072                 9.7136
 Frc consts  --      0.0456                 0.0566                 0.1305
 IR Inten    --      0.6828                 0.2221                 3.8706

                     10                     11                     12
                      A                      A                      A
 Frequencies --    167.7981               187.8188               193.5097
 Red. masses --      3.1234                 5.5997                10.5809
 Frc consts  --      0.0518                 0.1164                 0.2334
 IR Inten    --      7.7930                 0.3766                 0.7290

                     13                     14                     15
                      A                      A                      A
 Frequencies --    235.9480               239.0307               250.7658
 Red. masses --      4.7397                 1.2068                 4.2553
 Frc consts  --      0.1555                 0.0406                 0.1577
 IR Inten    --      4.4507                 0.5833                 0.8448

                     16                     17                     18
                      A                      A                      A
 Frequencies --    272.8891               275.5466               314.7224
 Red. masses --      9.5253                 7.9512                 6.6582
 Frc consts  --      0.4179                 0.3557                 0.3886
 IR Inten    --      0.9613                 0.0883                14.2704

                     19                     20                     21
                      A                      A                      A
 Frequencies --    338.7117               361.2148               386.8136
 Red. masses --     18.8562                 5.3140                15.8749
 Frc consts  --      1.2746                 0.4085                 1.3995
 IR Inten    --      0.0061                37.5153                 9.9776

                     22                     23                     24
                      A                      A                      A
 Frequencies --    390.3776               449.7808               450.2505
 Red. masses --     11.6161                 5.9092                13.2360
 Frc consts  --      1.0430                 0.7043                 1.5809
 IR Inten    --      4.1348                 0.1374                 0.6129

                     25                     26                     27
                      A                      A                      A
 Frequencies --    456.2968               499.6288               533.7102
 Red. masses --      7.9184                 6.8517                14.4814
 Frc consts  --      0.9714                 1.0077                 2.4304
 IR Inten    --      5.3580                13.1833                20.7986

                     28                     29                     30
                      A                      A                      A
 Frequencies --    550.0491               555.7213               571.2001
 Red. masses --     12.9089                 1.6749                 2.1128
 Frc consts  --      2.3011                 0.3047                 0.4061
 IR Inten    --     20.1681               135.6985                67.1583

                     31                     32                     33
                      A                      A                      A
 Frequencies --    575.2052               586.9557               610.8813
 Red. masses --     18.6600                18.8439                 5.5484
 Frc consts  --      3.6375                 3.8250                 1.2199
 IR Inten    --    143.8375                 0.0587                 3.9662

                     34                     35                     36
                      A                      A                      A
 Frequencies --    633.2942               658.1225               686.7735
 Red. masses --     15.5977                 7.1592                 2.4444
 Frc consts  --      3.6857                 1.8270                 0.6793
 IR Inten    --    112.8899                18.4621                42.7582

                     37                     38                     39
                      A                      A                      A
 Frequencies --    733.9716               765.8184               787.7662
 Red. masses --     13.2108                 1.1334                 7.1052
 Frc consts  --      4.1931                 0.3916                 2.5979
 IR Inten    --    317.6495                19.2394                31.5017

                     40                     41                     42
                      A                      A                      A
 Frequencies --    794.3060               812.1269               820.3853
 Red. masses --      9.4815                24.1269                23.3070
 Frc consts  --      3.5246                 9.3756                 9.2421
 IR Inten    --     50.9825               655.3926               647.6840

                     43                     44                     45
                      A                      A                      A
 Frequencies --    857.6731               875.9910               891.8705
 Red. masses --     13.3710                 1.4814                 1.4643
 Frc consts  --      5.7951                 0.6698                 0.6863
 IR Inten    --    224.5910                57.8482                14.4503

                     46                     47                     48
                      A                      A                      A
 Frequencies --    906.6879               922.1263               926.2030
 Red. masses --      1.1469                 1.4068                 1.7445
 Frc consts  --      0.5555                 0.7048                 0.8817
 IR Inten    --      4.7509                16.8926                54.1503

                     49                     50                     51
                      A                      A                      A
 Frequencies --    964.3277              1012.6930              1015.7727
 Red. masses --      5.2365                 6.1081                 7.4545
 Frc consts  --      2.8691                 3.6907                 4.5317
 IR Inten    --    103.4439                 1.4895                39.9667

                     52                     53                     54
                      A                      A                      A
 Frequencies --   1075.3399              1123.2782              1157.5487
 Red. masses --      2.4089                 6.9779                 1.6256
 Frc consts  --      1.6412                 5.1874                 1.2834
 IR Inten    --     15.3755               215.2567                33.0697

                     55                     56                     57
                      A                      A                      A
 Frequencies --   1164.9291              1180.4289              1191.2350
 Red. masses --      2.4049                 1.7314                 1.6512
 Frc consts  --      1.9228                 1.4214                 1.3805
 IR Inten    --     16.4302               203.7755                 1.4045

                     58                     59                     60
                      A                      A                      A
 Frequencies --   1253.3823              1288.0281              1291.6316
 Red. masses --      2.6234                 1.1874                 3.5667
 Frc consts  --      2.4282                 1.1606                 3.5059
 IR Inten    --    870.6457                 3.2663               329.7086

                     61                     62                     63
                      A                      A                      A
 Frequencies --   1323.1060              1335.1953              1345.2954
 Red. masses --      1.6577                 1.0682                 1.4471
 Frc consts  --      1.7098                 1.1220                 1.5431
 IR Inten    --    104.4576                 1.6899                38.4684

                     64                     65                     66
                      A                      A                      A
 Frequencies --   1362.8963              1417.7690              1439.8115
 Red. masses --      2.6992                 1.2744                 1.5282
 Frc consts  --      2.9540                 1.5093                 1.8665
 IR Inten    --     72.5639                 9.1689                25.7862

                     67                     68                     69
                      A                      A                      A
 Frequencies --   1464.9822              1485.7783              1500.9165
 Red. masses --      2.6233                 1.0632                 1.0378
 Frc consts  --      3.3171                 1.3828                 1.3774
 IR Inten    --    189.7624                 0.9165                13.9056

                     70                     71                     72
                      A                      A                      A
 Frequencies --   1509.0258              1517.2566              1522.2258
 Red. masses --      1.0927                 3.3290                 1.1076
 Frc consts  --      1.4660                 4.5152                 1.5121
 IR Inten    --      1.2362               354.2783                34.4439

                     73                     74                     75
                      A                      A                      A
 Frequencies --   1588.2778              1658.7719              1674.3052
 Red. masses --      2.1462                 4.3399                 6.6377
 Frc consts  --      3.1898                 7.0356                10.9632
 IR Inten    --    726.8899               140.6726               313.0626

                     76                     77                     78
                      A                      A                      A
 Frequencies --   1744.1345              3070.6215              3080.6224
 Red. masses --      9.8756                 1.0370                 1.0603
 Frc consts  --     17.7000                 5.7609                 5.9285
 IR Inten    --    816.6741                30.7832                24.6447

                     79                     80                     81
                      A                      A                      A
 Frequencies --   3097.0633              3116.4724              3138.8805
 Red. masses --      1.0570                 1.1043                 1.1049
 Frc consts  --      5.9733                 6.3192                 6.4137
 IR Inten    --     48.8397                 1.1607                33.4586

                     82                     83                     84
                      A                      A                      A
 Frequencies --   3149.4589              3154.9875              3244.5535
 Red. masses --      1.1024                 1.1102                 1.0931
 Frc consts  --      6.4428                 6.5109                 6.7801
 IR Inten    --     41.5367                80.9688                 4.2079

                     85                     86                     87
                      A                      A                      A
 Frequencies --   3257.4888              3299.6168              3620.9852
 Red. masses --      1.0947                 1.0920                 1.0783
 Frc consts  --      6.8438                 7.0049                 8.3301
 IR Inten    --     21.9156                48.3557               181.7950

 - Thermochemistry -
 -------------------
 Temperature   298.150 Kelvin.  Pressure   1.00000 Atm.
 Atom     1 has atomic number  6 and mass  12.00000

 Molecular mass:   339.01192 amu.
 Principal axes and moments of inertia in atomic units:
                           1         2         3
     Eigenvalues --  4758.66759********************
           X            0.99984   0.01806  -0.00029
           Y           -0.01806   0.99984  -0.00044
           Z            0.00028   0.00044   1.00000
 This molecule is an asymmetric top.
 Rotational symmetry number  1.
 Warning -- assumption of classical behavior for rotation
           may cause significant error
 Rotational temperatures (Kelvin)      0.01820     0.00647     0.00498
 Rotational constants (GHZ):           0.37925     0.13492     0.10377
 Zero-point vibrational energy     568355.2 (Joules/Mol)
                                  135.84016 (Kcal/Mol)
 Warning -- explicit consideration of  33 degrees of freedom as
           vibrations may cause significant error
 Vibrational temperatures:     17.16    34.49    54.76    72.71   108.19
          (Kelvin)            124.54   153.05   159.58   217.22   241.42
                              270.23   278.42   339.48   343.91   360.80
                              392.63   396.45   452.81   487.33   519.71
                              556.54   561.67   647.13   647.81   656.51
                              718.85   767.89   791.40   799.56   821.83
                              827.59   844.50   878.92   911.17   946.89
                              988.11  1056.02  1101.84  1133.42  1142.83
                             1168.47  1180.35  1234.00  1260.35  1283.20
                             1304.52  1326.73  1332.60  1387.45  1457.04
                             1461.47  1547.17  1616.14  1665.45  1676.07
                             1698.37  1713.92  1803.34  1853.18  1858.37
                             1903.65  1921.05  1935.58  1960.90  2039.85
                             2071.57  2107.78  2137.70  2159.48  2171.15
                             2182.99  2190.14  2285.17  2386.60  2408.95
                             2509.42  4417.93  4432.32  4455.98  4483.90
                             4516.14  4531.36  4539.32  4668.18  4686.79
                             4747.41  5209.78

 Zero-point correction=                           0.216475 (Hartree/Particle)
 Thermal correction to Energy=                    0.236204
 Thermal correction to Enthalpy=                  0.237148
 Thermal correction to Gibbs Free Energy=         0.165102
 Sum of electronic and zero-point Energies=          -1950.084589
 Sum of electronic and thermal Energies=             -1950.064860
 Sum of electronic and thermal Enthalpies=           -1950.063916
 Sum of electronic and thermal Free Energies=        -1950.135963

                     E (Thermal)             CV                S
                      KCal/Mol        Cal/Mol-Kelvin    Cal/Mol-Kelvin
 Total                  148.220             72.971            151.635
 Electronic               0.000              0.000              0.000
 Translational            0.889              2.981             43.357
 Rotational               0.889              2.981             35.358
 Vibrational            146.443             67.010             72.919
 Vibration     1          0.593              1.987              7.661
 Vibration     2          0.593              1.985              6.274
 Vibration     3          0.594              1.982              5.357
 Vibration     4          0.595              1.977              4.796
 Vibration     5          0.599              1.966              4.012
 Vibration     6          0.601              1.959              3.736
 Vibration     7          0.605              1.944              3.334
 Vibration     8          0.607              1.940              3.253
 Vibration     9          0.618              1.902              2.660
 Vibration    10          0.625              1.882              2.460
 Vibration    11          0.633              1.857              2.249
 Vibration    12          0.635              1.849              2.194
 Vibration    13          0.655              1.786              1.833
 Vibration    14          0.657              1.781              1.810
 Vibration    15          0.663              1.761              1.725
 Vibration    16          0.676              1.723              1.578
 Vibration    17          0.677              1.719              1.561
 Vibration    18          0.702              1.646              1.337
 Vibration    19          0.719              1.598              1.218
 Vibration    20          0.735              1.552              1.117
 Vibration    21          0.755              1.498              1.012
 Vibration    22          0.758              1.491              0.999
 Vibration    23          0.809              1.361              0.796
 Vibration    24          0.809              1.360              0.795
 Vibration    25          0.815              1.347              0.777
 Vibration    26          0.855              1.251              0.659
 Vibration    27          0.889              1.175              0.579
 Vibration    28          0.905              1.140              0.544
 Vibration    29          0.911              1.127              0.532
 Vibration    30          0.927              1.094              0.502
 Vibration    31          0.932              1.085              0.494
 Vibration    32          0.944              1.060              0.473
 Vibration    33          0.970              1.009              0.431

 Normal termination of Gaussian 09 at Thu Nov 14 18:58:16 2019.
