 Gaussian 16, Revision C.01,
 Gaussian 16:  ES64L-G16RevC.01  3-Jul-2019

 ---------------------------------------------------------------------
 # DSDPBEP86/AUG-cc-PVTZ SCF=Tight INT(grid=ultrafine) MaxDisk=60000MB
 ---------------------------------------------------------------------

 -------------------------------
 CP22CA_c2.DSDPBEP86_AUG-cc-PVTZ
 -------------------------------
 Symbolic Z-matrix:
 Charge =  0 Multiplicity = 1

                         Standard orientation:
 ---------------------------------------------------------------------
 Center     Atomic      Atomic             Coordinates (Angstroms)
 Number     Number       Type             X           Y           Z
 ---------------------------------------------------------------------
      1          6           0        0.592396    0.239894   -0.000344
      2          7           0        1.835707   -0.397848   -0.000563
      3          6           0        3.076949    0.193028   -0.000250
      4          8           0        3.303048    1.374562   -0.000094
      5          8           0        4.012731   -0.767261   -0.000111
      6          6           0        5.373424   -0.303973    0.000061
      7          6           0        6.272583   -1.520998    0.000039
      8          6           0        7.742968   -1.111686    0.000489
      9          6           0       -0.540747   -0.579820   -0.000286
     10          6           0       -1.790525    0.007478   -0.000065
     11          6           0       -1.980562    1.379719    0.000071
     12          6           0       -0.836928    2.165244   -0.000012
     13          6           0        0.443369    1.629243   -0.000226
     14          1           0        1.840129   -1.407268   -0.000554
     15          1           0        5.532214    0.318843    0.883643
     16          1           0        5.532386    0.319027   -0.883360
     17          1           0        6.046711   -2.130556   -0.879052
     18          1           0        6.046271   -2.130884    0.878788
     19          1           0        7.989701   -0.516262   -0.881838
     20          1           0        8.392332   -1.987860    0.000504
     21          1           0        7.989230   -0.516569    0.883156
     22          1           0       -0.437927   -1.657829   -0.000375
     23         17           0       -1.014277    3.893537    0.000149
     24          1           0        1.306765    2.276934   -0.000266
     25         16           0       -3.246940   -1.068096    0.000066
     26          1           0       -2.965189    1.825649    0.000239
     27          9           0       -2.620205   -2.028350    1.139224
     28          9           0       -3.976203   -0.191499    1.140691
     29          9           0       -2.620813   -2.027788   -1.139888
     30          9           0       -3.976837   -0.190959   -1.139739
     31          9           0       -4.536235   -2.023187    0.000184
 ---------------------------------------------------------------------

 SCF Done:  E(RDSDPBEP86) =  -1946.60417284     A.U. after   14 cycles
 E2(DSDPBEP86) =    -0.2006640610D+01 E(DSDPBEP86) =    -0.19486108134508D+04

 The electronic state is 1-A.
 Alpha  occ. eigenvalues -- -103.58418 -91.17311 -25.71839 -25.71838 -25.71831
 Alpha  occ. eigenvalues --  -25.71830 -25.71720 -20.06911 -20.00306 -15.14858
 Alpha  occ. eigenvalues --  -11.00618 -10.91483 -10.91457 -10.89799 -10.88777
 Alpha  occ. eigenvalues --  -10.86576 -10.86209 -10.85347 -10.83052 -10.82036
 Alpha  occ. eigenvalues --  -10.15915  -8.91798  -7.73597  -7.73119  -7.73103
 Alpha  occ. eigenvalues --   -6.70906  -6.70894  -6.70495  -1.60103  -1.50497
 Alpha  occ. eigenvalues --   -1.50415  -1.47536  -1.46116  -1.36150  -1.25884
 Alpha  occ. eigenvalues --   -1.17798  -1.10620  -1.05122  -1.00248  -0.98183
 Alpha  occ. eigenvalues --   -0.94508  -0.93012  -0.87527  -0.82240  -0.79981
 Alpha  occ. eigenvalues --   -0.77895  -0.77798  -0.76263  -0.74698  -0.71757
 Alpha  occ. eigenvalues --   -0.70402  -0.68998  -0.67085  -0.66645  -0.65667
 Alpha  occ. eigenvalues --   -0.64759  -0.64322  -0.62103  -0.61352  -0.60289
 Alpha  occ. eigenvalues --   -0.60008  -0.59834  -0.59702  -0.59536  -0.58425
 Alpha  occ. eigenvalues --   -0.57000  -0.56847  -0.56051  -0.55940  -0.55546
 Alpha  occ. eigenvalues --   -0.53673  -0.53630  -0.51205  -0.51032  -0.50177
 Alpha  occ. eigenvalues --   -0.48267  -0.47774  -0.46628  -0.45026  -0.44761
 Alpha  occ. eigenvalues --   -0.42341  -0.42155  -0.41885  -0.41428  -0.34148
 Alpha  occ. eigenvalues --   -0.31334
 Alpha virt. eigenvalues --    0.00887   0.01593   0.01755   0.02442   0.02556
 Alpha virt. eigenvalues --    0.02941   0.03404   0.03414   0.04435   0.04892
 Alpha virt. eigenvalues --    0.04921   0.05158   0.05778   0.06194   0.06480

 Mulliken charges:
               1
     1  C    0.541094
     2  N   -0.078350
     3  C    0.367118
     4  O   -0.770210
     5  O   -0.488460
     6  C   -0.191167
     7  C   -0.454507
     8  C   -0.959993
     9  C   -0.936840
    10  C    0.785301
    11  C   -0.688768
    12  C    0.475128
    13  C   -0.698865
    14  H   -0.006809
    15  H    0.331590
    16  H    0.331590
    17  H    0.215982
    18  H    0.216017
    19  H    0.278428
    20  H    0.288315
    21  H    0.278413
    22  H    0.433151
    23  Cl  -0.404491
    24  H    0.742716
    25  S    2.757192
    26  H    0.503673
    27  F   -0.590887
    28  F   -0.582824
    29  F   -0.590888
    30  F   -0.582822
    31  F   -0.519826
 Sum of Mulliken charges =  -0.00000

 Dipole moment (field-independent basis, Debye):
    X=              4.7734    Y=             -1.8897    Z=             -0.0003  Tot=              5.1339
 Quadrupole moment (field-independent basis, Debye-Ang):
   XX=           -120.6630   YY=           -133.2025   ZZ=           -130.4725
   XY=            -13.5207   XZ=             -0.0001   YZ=              0.0007

 Normal termination of Gaussian 16 at Thu Sep 10 17:18:17 2020.
