 Gaussian 09, Revision E.01,

 ----------------------------------------------------------------------
 # M062X/6-311+G* SCF=Tight INT(grid=ultrafine) OPT IOP(2/17=4) Empiric
 alDispersion=GD3 SCRF=(SMD,Solvent=h2o) maxdisk=2684354560
 ----------------------------------------------------------------------

 --------------------------------------
 CP22CA_c2.M062X_6-311pGd_opt_water_GD3
 --------------------------------------
 Symbolic Z-matrix:
 Charge =  0 Multiplicity = 1

 SCF Done:  E(RM062X) =  -1950.30074735     A.U. after   15 cycles
 Optimization completed.
    -- Stationary point found.
 Normal termination of Gaussian 09 at Thu Nov 14 17:35:04 2019.
 Gaussian 09:  ES64L-G09RevE.01 30-Nov-2015

 ----------------------------------------------------------------------
 # M062X/6-311+G* SCF=Tight INT(grid=ultrafine) SCRF=(SMD,Solvent=h2o)
 EmpiricalDispersion=GD3 Freq=Noraman maxdisk=2684354560 geom=check gue
 ss=read IOP(2/17=4)
 ----------------------------------------------------------------------

 --------------------------------------
 CP22CA_c2.M062X_6-311pGd_opt_water_GD3
 --------------------------------------
 Structure from the checkpoint file:  "CP22CA_c2.M062X_6-311pGd_opt_water_GD3.chk"
 Charge =  0 Multiplicity = 1

                         Standard orientation:
 ---------------------------------------------------------------------
 Center     Atomic      Atomic             Coordinates (Angstroms)
 Number     Number       Type             X           Y           Z
 ---------------------------------------------------------------------
      1          6           0        0.594452    0.249756   -0.166484
      2          7           0        1.837634   -0.380029   -0.269448
      3          6           0        3.058630    0.171572   -0.004449
      4          8           0        3.262459    1.323663    0.319987
      5          8           0        4.013938   -0.750352   -0.153231
      6          6           0        5.365668   -0.310877    0.104571
      7          6           0        6.279752   -1.495641   -0.108529
      8          6           0        7.729947   -1.101151    0.149338
      9          6           0       -0.532885   -0.577470   -0.119584
     10          6           0       -1.778488    0.011119   -0.031795
     11          6           0       -1.980816    1.382424    0.014750
     12          6           0       -0.839977    2.167280   -0.044301
     13          6           0        0.438599    1.636980   -0.139713
     14          1           0        1.831372   -1.378754   -0.441149
     15          1           0        5.420918    0.058706    1.130475
     16          1           0        5.601090    0.506792   -0.579649
     17          1           0        6.161859   -1.860171   -1.132570
     18          1           0        5.980988   -2.304150    0.564171
     19          1           0        8.047015   -0.302763   -0.526284
     20          1           0        8.397166   -1.951257   -0.001396
     21          1           0        7.865330   -0.746837    1.174317
     22          1           0       -0.410445   -1.653408   -0.146944
     23         17           0       -1.018790    3.900393   -0.009908
     24          1           0        1.293181    2.293361   -0.199125
     25         16           0       -3.227468   -1.066558    0.036074
     26          1           0       -2.964314    1.826632    0.088422
     27          9           0       -2.531353   -2.082377    1.082848
     28          9           0       -3.878521   -0.249205    1.269192
     29          9           0       -2.710072   -1.983624   -1.190263
     30          9           0       -4.059409   -0.152063   -1.004880
     31          9           0       -4.526106   -2.028302    0.097577
 ---------------------------------------------------------------------

 SCF Done:  E(RM062X) =  -1950.30074735     A.U. after    2 cycles

 The electronic state is 1-A.
 Alpha  occ. eigenvalues -- -102.69060 -90.29119 -25.29595 -25.29594 -25.29582
 Alpha  occ. eigenvalues --  -25.29579 -25.29468 -19.67775 -19.62277 -14.80323
 Alpha  occ. eigenvalues --  -10.71882 -10.63187 -10.62784 -10.61976 -10.59076
 Alpha  occ. eigenvalues --  -10.58247 -10.58209 -10.57353 -10.53098 -10.51918
 Alpha  occ. eigenvalues --   -9.83329  -8.61442  -7.55842  -7.55167  -7.55150
 Alpha  occ. eigenvalues --   -6.53866  -6.53855  -6.53406  -1.51400  -1.41362
 Alpha  occ. eigenvalues --   -1.41308  -1.38297  -1.36891  -1.25887  -1.15977
 Alpha  occ. eigenvalues --   -1.08258  -1.02423  -0.98123  -0.94017  -0.89863
 Alpha  occ. eigenvalues --   -0.87473  -0.86089  -0.80092  -0.77219  -0.75194
 Alpha  occ. eigenvalues --   -0.74858  -0.73364  -0.70807  -0.67714  -0.66532
 Alpha  occ. eigenvalues --   -0.65425  -0.65180  -0.63490  -0.62680  -0.61477
 Alpha  occ. eigenvalues --   -0.59965  -0.59475  -0.59424  -0.57126  -0.56635
 Alpha  occ. eigenvalues --   -0.56444  -0.56438  -0.56292  -0.55294  -0.53911
 Alpha  occ. eigenvalues --   -0.53532  -0.53368  -0.52740  -0.52220  -0.51092
 Alpha  occ. eigenvalues --   -0.50415  -0.49988  -0.47391  -0.47042  -0.45531
 Alpha  occ. eigenvalues --   -0.45093  -0.43525  -0.42754  -0.40335  -0.40166
 Alpha  occ. eigenvalues --   -0.39731  -0.39476  -0.38322  -0.38210  -0.33184
 Alpha  occ. eigenvalues --   -0.30121
 Alpha virt. eigenvalues --   -0.03035  -0.02408  -0.00808   0.00985   0.02214
 Alpha virt. eigenvalues --    0.02905   0.03273   0.03493   0.04037   0.04121
 Alpha virt. eigenvalues --    0.04420   0.04715   0.05327   0.05446   0.06192

 Mulliken charges:
               1
     1  C   -0.869199
     2  N   -0.458325
     3  C    0.001216
     4  O   -0.417730
     5  O   -0.087060
     6  C   -0.367416
     7  C   -0.161159
     8  C   -1.061347
     9  C    0.207369
    10  C   -1.647236
    11  C    0.172722
    12  C    0.527905
    13  C   -0.446378
    14  H    0.477106
    15  H    0.289792
    16  H    0.291280
    17  H    0.271210
    18  H    0.271099
    19  H    0.272219
    20  H    0.283964
    21  H    0.272623
    22  H    0.335798
    23  Cl   0.410545
    24  H    0.339106
    25  S    0.552794
    26  H    0.360095
    27  F    0.052344
    28  F    0.037670
    29  F    0.054201
    30  F    0.039756
    31  F   -0.004968
 Sum of Mulliken charges =  -0.00000

 Dipole moment (field-independent basis, Debye):
    X=              6.0031    Y=             -2.5598    Z=             -0.9879  Tot=              6.6004
 Quadrupole moment (field-independent basis, Debye-Ang):
   XX=           -125.1309   YY=           -135.5780   ZZ=           -132.7679
   XY=            -17.8637   XZ=             -1.8088   YZ=             -0.9134

  Exact polarizability: 273.727  -6.262 253.662  -1.050   5.910 152.072
 Approx polarizability: 221.521  -5.682 225.682  -1.619   5.679 141.039

                      1                      2                      3
                      A                      A                      A
 Frequencies --     22.9891                32.6863                39.6387
 Red. masses --      5.6585                 4.6634                 9.9554
 Frc consts  --      0.0018                 0.0029                 0.0092
 IR Inten    --      1.4419                 5.9075                 0.3544

                      4                      5                      6
                      A                      A                      A
 Frequencies --     54.7431                71.4492                89.8071
 Red. masses --      5.8124                 4.1963                 2.2592
 Frc consts  --      0.0103                 0.0126                 0.0107
 IR Inten    --      0.3553                 1.1642                 4.3229

                      7                      8                      9
                      A                      A                      A
 Frequencies --    101.0949               117.5314               142.8684
 Red. masses --      7.0893                 8.6860                 7.8181
 Frc consts  --      0.0427                 0.0707                 0.0940
 IR Inten    --      1.8947                 3.4502                 1.8416

                     10                     11                     12
                      A                      A                      A
 Frequencies --    169.5915               195.8364               196.6576
 Red. masses --      3.1263                 6.9619                 7.0110
 Frc consts  --      0.0530                 0.1573                 0.1598
 IR Inten    --      6.9355                 2.7919                 0.6538

                     13                     14                     15
                      A                      A                      A
 Frequencies --    219.0478               239.8919               254.0136
 Red. masses --      9.7796                 1.1476                 4.4554
 Frc consts  --      0.2765                 0.0389                 0.1694
 IR Inten    --      1.3173                 0.2250                 0.7926

                     16                     17                     18
                      A                      A                      A
 Frequencies --    270.1991               273.9030               332.5159
 Red. masses --      5.8003                 7.5102                 6.3867
 Frc consts  --      0.2495                 0.3320                 0.4161
 IR Inten    --      0.7861                 0.0538                 2.6965

                     19                     20                     21
                      A                      A                      A
 Frequencies --    337.9679               367.0877               385.4806
 Red. masses --     18.7919                 6.1385                13.9925
 Frc consts  --      1.2647                 0.4874                 1.2250
 IR Inten    --      0.0201                51.6567                 6.1166

                     22                     23                     24
                      A                      A                      A
 Frequencies --    389.5306               433.8852               451.5199
 Red. masses --     11.4317                 8.2647                18.7250
 Frc consts  --      1.0220                 0.9167                 2.2492
 IR Inten    --      4.0905                 6.9749                 0.0080

                     25                     26                     27
                      A                      A                      A
 Frequencies --    470.4406               495.1395               532.8946
 Red. masses --      5.1080                 7.1220                14.5812
 Frc consts  --      0.6661                 1.0287                 2.4396
 IR Inten    --      0.6888                 8.7435                40.5432

                     28                     29                     30
                      A                      A                      A
 Frequencies --    549.8074               561.0697               570.1916
 Red. masses --     12.1090                 1.3484                 3.1938
 Frc consts  --      2.1567                 0.2501                 0.6118
 IR Inten    --     30.6904               125.8892                43.6968

                     31                     32                     33
                      A                      A                      A
 Frequencies --    575.0692               587.2922               608.5303
 Red. masses --     16.9241                18.8853                 5.6934
 Frc consts  --      3.2976                 3.8378                 1.2422
 IR Inten    --    153.0037                 0.0843                13.4653

                     34                     35                     36
                      A                      A                      A
 Frequencies --    632.7157               659.9516               686.1391
 Red. masses --     14.3841                 7.4562                 2.4018
 Frc consts  --      3.3927                 1.9133                 0.6662
 IR Inten    --    109.5941                14.3101                50.7219

                     37                     38                     39
                      A                      A                      A
 Frequencies --    739.7029               766.9028               784.4093
 Red. masses --     13.2285                 1.1357                 7.9798
 Frc consts  --      4.2646                 0.3935                 2.8929
 IR Inten    --    364.9032                21.1382                53.2702

                     40                     41                     42
                      A                      A                      A
 Frequencies --    788.2580               812.1902               822.5915
 Red. masses --      7.3655                24.1378                22.7302
 Frc consts  --      2.6964                 9.3813                 9.0619
 IR Inten    --     57.2216               651.1635               574.6084

                     43                     44                     45
                      A                      A                      A
 Frequencies --    862.1919               869.3816               898.1073
 Red. masses --     13.4780                 1.4837                 1.5252
 Frc consts  --      5.9031                 0.6607                 0.7248
 IR Inten    --    317.9790                44.6476                29.9761

                     46                     47                     48
                      A                      A                      A
 Frequencies --    908.0226               916.1849               926.3043
 Red. masses --      1.1450                 1.3930                 1.7473
 Frc consts  --      0.5562                 0.6889                 0.8833
 IR Inten    --      4.1791                11.1624                 2.9533

                     49                     50                     51
                      A                      A                      A
 Frequencies --    965.4838              1012.2578              1015.7100
 Red. masses --      5.1043                 6.0455                 7.3957
 Frc consts  --      2.8034                 3.6498                 4.4954
 IR Inten    --    100.6110                 5.4258                20.7773

                     52                     53                     54
                      A                      A                      A
 Frequencies --   1075.0121              1122.0052              1158.9044
 Red. masses --      2.4121                 6.2376                 1.5874
 Frc consts  --      1.6424                 4.6265                 1.2561
 IR Inten    --      7.0135               302.9311                10.4623

                     55                     56                     57
                      A                      A                      A
 Frequencies --   1165.5859              1175.7851              1192.0543
 Red. masses --      2.3201                 1.8439                 1.6525
 Frc consts  --      1.8572                 1.5019                 1.3835
 IR Inten    --     16.0567                95.9862                 1.3820

                     58                     59                     60
                      A                      A                      A
 Frequencies --   1256.7275              1288.5019              1296.3549
 Red. masses --      2.6862                 1.1834                 3.7155
 Frc consts  --      2.4996                 1.1576                 3.6789
 IR Inten    --   1054.7129                 2.9282               175.7711

                     61                     62                     63
                      A                      A                      A
 Frequencies --   1319.6694              1337.2349              1346.0115
 Red. masses --      1.9184                 1.0694                 1.4437
 Frc consts  --      1.9685                 1.1267                 1.5411
 IR Inten    --    146.4432                 2.0019                36.2226

                     64                     65                     66
                      A                      A                      A
 Frequencies --   1361.0563              1417.7777              1442.9210
 Red. masses --      2.2119                 1.2752                 1.5134
 Frc consts  --      2.4142                 1.5102                 1.8565
 IR Inten    --     55.8247                 9.0490                12.7330

                     67                     68                     69
                      A                      A                      A
 Frequencies --   1471.9911              1485.5408              1501.0821
 Red. masses --      2.8526                 1.0635                 1.0375
 Frc consts  --      3.6417                 1.3828                 1.3774
 IR Inten    --    142.9051                 1.2064                13.9759

                     70                     71                     72
                      A                      A                      A
 Frequencies --   1509.2710              1518.9523              1523.3111
 Red. masses --      1.0950                 3.2981                 1.1057
 Frc consts  --      1.4697                 4.4833                 1.5117
 IR Inten    --      1.9196               233.4022                29.9576

                     73                     74                     75
                      A                      A                      A
 Frequencies --   1588.0471              1657.6981              1676.9866
 Red. masses --      2.0618                 4.7460                 5.5323
 Frc consts  --      3.0635                 7.6841                 9.1668
 IR Inten    --    822.9618               282.2889                82.1682

                     76                     77                     78
                      A                      A                      A
 Frequencies --   1746.3723              3070.6920              3081.1360
 Red. masses --      9.6756                 1.0369                 1.0603
 Frc consts  --     17.3861                 5.7605                 5.9306
 IR Inten    --    851.6840                31.0646                25.3318

                     79                     80                     81
                      A                      A                      A
 Frequencies --   3098.5604              3116.8170              3139.2135
 Red. masses --      1.0569                 1.1043                 1.1048
 Frc consts  --      5.9786                 6.3204                 6.4149
 IR Inten    --     48.0823                 1.2206                36.3721

                     82                     83                     84
                      A                      A                      A
 Frequencies --   3148.8122              3156.4089              3240.2491
 Red. masses --      1.1025                 1.1104                 1.0937
 Frc consts  --      6.4404                 6.5178                 6.7657
 IR Inten    --     41.4479                79.2784                11.2690

                     85                     86                     87
                      A                      A                      A
 Frequencies --   3260.8653              3285.7028              3607.0533
 Red. masses --      1.0945                 1.0930                 1.0783
 Frc consts  --      6.8567                 6.9521                 8.2659
 IR Inten    --     23.4743                20.0589               189.3228

 - Thermochemistry -
 -------------------
 Temperature   298.150 Kelvin.  Pressure   1.00000 Atm.
 Atom     1 has atomic number  6 and mass  12.00000

 Molecular mass:   339.01192 amu.
 Principal axes and moments of inertia in atomic units:
                           1         2         3
     Eigenvalues --  4062.32749********************
           X            0.99976  -0.02177   0.00090
           Y            0.02177   0.99976   0.00071
           Z           -0.00091  -0.00069   1.00000
 This molecule is an asymmetric top.
 Rotational symmetry number  1.
 Warning -- assumption of classical behavior for rotation
           may cause significant error
 Rotational temperatures (Kelvin)      0.02132     0.00565     0.00465
 Rotational constants (GHZ):           0.44426     0.11777     0.09698
 Zero-point vibrational energy     568508.8 (Joules/Mol)
                                  135.87685 (Kcal/Mol)
 Warning -- explicit consideration of  33 degrees of freedom as
           vibrations may cause significant error
 Vibrational temperatures:     33.08    47.03    57.03    78.76   102.80
          (Kelvin)            129.21   145.45   169.10   205.56   244.00
                              281.76   282.95   315.16   345.15   365.47
                              388.76   394.08   478.42   486.26   528.16
                              554.62   560.45   624.26   649.64   676.86
                              712.39   766.72   791.05   807.25   820.38
                              827.40   844.98   875.54   910.34   949.52
                              987.20  1064.27  1103.40  1128.59  1134.13
                             1168.56  1183.52  1240.50  1250.84  1292.17
                             1306.44  1318.18  1332.74  1389.11  1456.41
                             1461.38  1546.70  1614.31  1667.40  1677.02
                             1691.69  1715.10  1808.15  1853.86  1865.16
                             1898.71  1923.98  1936.61  1958.25  2039.86
                             2076.04  2117.86  2137.36  2159.72  2171.50
                             2185.43  2191.70  2284.84  2385.05  2412.81
                             2512.64  4418.04  4433.06  4458.13  4484.40
                             4516.62  4530.43  4541.36  4661.99  4691.65
                             4727.39  5189.74

 Zero-point correction=                           0.216534 (Hartree/Particle)
 Thermal correction to Energy=                    0.236203
 Thermal correction to Enthalpy=                  0.237147
 Thermal correction to Gibbs Free Energy=         0.166087
 Sum of electronic and zero-point Energies=          -1950.084214
 Sum of electronic and thermal Energies=             -1950.064545
 Sum of electronic and thermal Enthalpies=           -1950.063600
 Sum of electronic and thermal Free Energies=        -1950.134660

                     E (Thermal)             CV                S
                      KCal/Mol        Cal/Mol-Kelvin    Cal/Mol-Kelvin
 Total                  148.219             72.943            149.557
 Electronic               0.000              0.000              0.000
 Translational            0.889              2.981             43.357
 Rotational               0.889              2.981             35.403
 Vibrational            146.442             66.981             70.797
 Vibration     1          0.593              1.985              6.358
 Vibration     2          0.594              1.983              5.659
 Vibration     3          0.594              1.981              5.277
 Vibration     4          0.596              1.976              4.638
 Vibration     5          0.598              1.968              4.113
 Vibration     6          0.602              1.956              3.664
 Vibration     7          0.604              1.948              3.433
 Vibration     8          0.608              1.935              3.141
 Vibration     9          0.616              1.910              2.765
 Vibration    10          0.625              1.880              2.440
 Vibration    11          0.636              1.846              2.172
 Vibration    12          0.636              1.845              2.164
 Vibration    13          0.647              1.812              1.967
 Vibration    14          0.657              1.779              1.804
 Vibration    15          0.665              1.756              1.703
 Vibration    16          0.674              1.728              1.595
 Vibration    17          0.676              1.722              1.571
 Vibration    18          0.714              1.611              1.248
 Vibration    19          0.718              1.600              1.222
 Vibration    20          0.740              1.540              1.092
 Vibration    21          0.754              1.501              1.018
 Vibration    22          0.757              1.493              1.002
 Vibration    23          0.795              1.396              0.846
 Vibration    24          0.810              1.358              0.791
 Vibration    25          0.827              1.316              0.736
 Vibration    26          0.851              1.261              0.670
 Vibration    27          0.888              1.177              0.581
 Vibration    28          0.905              1.140              0.545
 Vibration    29          0.917              1.116              0.522
 Vibration    30          0.926              1.096              0.504
 Vibration    31          0.931              1.085              0.495
 Vibration    32          0.944              1.059              0.472
 Vibration    33          0.967              1.014              0.435

 Optimization completed.
    -- Stationary point found.
 Normal termination of Gaussian 09 at Thu Nov 14 19:00:21 2019.
