 Gaussian 09, Revision E.01,

 ----------------------------------------------------------------------
 # M062X/6-311+G* SCF=Tight INT(grid=ultrafine) OPT IOP(2/17=4) Empiric
 alDispersion=GD3 maxdisk=2684354560
 ----------------------------------------------------------------------

 --------------------------------
 CP22CA_c2.M062X_6-311pGd_opt_GD3
 --------------------------------
 Symbolic Z-matrix:
 Charge =  0 Multiplicity = 1

 SCF Done:  E(RM062X) =  -1950.29244997     A.U. after   15 cycles
 Optimization completed.
    -- Stationary point found.
 Normal termination of Gaussian 09 at Thu Nov 14 17:34:23 2019.
 Gaussian 09:  ES64L-G09RevE.01 30-Nov-2015

 ----------------------------------------------------------------------
 # M062X/6-311+G* SCF=Tight INT(grid=ultrafine) EmpiricalDispersion=GD3
  Freq=Noraman maxdisk=2684354560 geom=check guess=read IOP(2/17=4)
 ----------------------------------------------------------------------

 --------------------------------
 CP22CA_c2.M062X_6-311pGd_opt_GD3
 --------------------------------
 Structure from the checkpoint file:  "CP22CA_c2.M062X_6-311pGd_opt_GD3.chk"
 Charge =  0 Multiplicity = 1

                         Standard orientation:
 ---------------------------------------------------------------------
 Center     Atomic      Atomic             Coordinates (Angstroms)
 Number     Number       Type             X           Y           Z
 ---------------------------------------------------------------------
      1          6           0        0.592396    0.239894   -0.000344
      2          7           0        1.835707   -0.397848   -0.000563
      3          6           0        3.076949    0.193028   -0.000250
      4          8           0        3.303048    1.374562   -0.000094
      5          8           0        4.012731   -0.767261   -0.000111
      6          6           0        5.373424   -0.303973    0.000061
      7          6           0        6.272583   -1.520998    0.000039
      8          6           0        7.742968   -1.111686    0.000489
      9          6           0       -0.540747   -0.579820   -0.000286
     10          6           0       -1.790525    0.007478   -0.000065
     11          6           0       -1.980562    1.379719    0.000071
     12          6           0       -0.836928    2.165244   -0.000012
     13          6           0        0.443369    1.629243   -0.000226
     14          1           0        1.840129   -1.407268   -0.000554
     15          1           0        5.532214    0.318843    0.883643
     16          1           0        5.532386    0.319027   -0.883360
     17          1           0        6.046711   -2.130556   -0.879052
     18          1           0        6.046271   -2.130884    0.878788
     19          1           0        7.989701   -0.516262   -0.881838
     20          1           0        8.392332   -1.987860    0.000504
     21          1           0        7.989230   -0.516569    0.883156
     22          1           0       -0.437927   -1.657829   -0.000375
     23         17           0       -1.014277    3.893537    0.000149
     24          1           0        1.306765    2.276934   -0.000266
     25         16           0       -3.246940   -1.068096    0.000066
     26          1           0       -2.965189    1.825649    0.000239
     27          9           0       -2.620205   -2.028350    1.139224
     28          9           0       -3.976203   -0.191499    1.140691
     29          9           0       -2.620813   -2.027788   -1.139888
     30          9           0       -3.976837   -0.190959   -1.139739
     31          9           0       -4.536235   -2.023187    0.000184
 ---------------------------------------------------------------------

 SCF Done:  E(RM062X) =  -1950.29244997     A.U. after    2 cycles

 The electronic state is 1-A.
 Alpha  occ. eigenvalues -- -102.69290 -90.28824 -25.29120 -25.29120 -25.29112
 Alpha  occ. eigenvalues --  -25.29112 -25.28977 -19.68946 -19.62974 -14.82044
 Alpha  occ. eigenvalues --  -10.72595 -10.63989 -10.63869 -10.62496 -10.61150
 Alpha  occ. eigenvalues --  -10.59359 -10.58959 -10.58075 -10.55429 -10.54338
 Alpha  occ. eigenvalues --   -9.83559  -8.61118  -7.56078  -7.55390  -7.55375
 Alpha  occ. eigenvalues --   -6.53551  -6.53540  -6.53106  -1.51096  -1.40965
 Alpha  occ. eigenvalues --   -1.40866  -1.37994  -1.36435  -1.27094  -1.17189
 Alpha  occ. eigenvalues --   -1.09729  -1.03075  -0.98347  -0.94310  -0.91541
 Alpha  occ. eigenvalues --   -0.88394  -0.86838  -0.81811  -0.77595  -0.75374
 Alpha  occ. eigenvalues --   -0.74429  -0.74053  -0.71925  -0.69773  -0.67532
 Alpha  occ. eigenvalues --   -0.66582  -0.64917  -0.62987  -0.62623  -0.62250
 Alpha  occ. eigenvalues --   -0.60945  -0.60938  -0.58947  -0.57630  -0.56396
 Alpha  occ. eigenvalues --   -0.56175  -0.56116  -0.56063  -0.55740  -0.55501
 Alpha  occ. eigenvalues --   -0.53631  -0.53361  -0.52772  -0.52230  -0.52224
 Alpha  occ. eigenvalues --   -0.51123  -0.50709  -0.48658  -0.48293  -0.47200
 Alpha  occ. eigenvalues --   -0.45716  -0.44986  -0.44566  -0.42352  -0.42203
 Alpha  occ. eigenvalues --   -0.40540  -0.39704  -0.39685  -0.38737  -0.33750
 Alpha  occ. eigenvalues --   -0.31038
 Alpha virt. eigenvalues --   -0.03030  -0.02630  -0.01562  -0.00432   0.01128
 Alpha virt. eigenvalues --    0.01641   0.02490   0.02684   0.03282   0.03906
 Alpha virt. eigenvalues --    0.04189   0.04410   0.04829   0.05061   0.05700

 Mulliken charges:
               1
     1  C   -0.926643
     2  N   -0.487841
     3  C    0.028948
     4  O   -0.274951
     5  O   -0.054358
     6  C   -0.355066
     7  C   -0.140906
     8  C   -1.024798
     9  C    0.143394
    10  C   -1.990899
    11  C    0.306347
    12  C    0.713729
    13  C   -0.437040
    14  H    0.407433
    15  H    0.269372
    16  H    0.269378
    17  H    0.259931
    18  H    0.259930
    19  H    0.260173
    20  H    0.275284
    21  H    0.260171
    22  H    0.270086
    23  Cl   0.442141
    24  H    0.334037
    25  S    0.561214
    26  H    0.322484
    27  F    0.075245
    28  F    0.059777
    29  F    0.075302
    30  F    0.059767
    31  F    0.038358
 Sum of Mulliken charges =  -0.00000

 Dipole moment (field-independent basis, Debye):
    X=              5.1455    Y=             -1.5164    Z=             -0.0003  Tot=              5.3643
 Quadrupole moment (field-independent basis, Debye-Ang):
   XX=           -122.1051   YY=           -133.6604   ZZ=           -132.3726
   XY=            -13.9786   XZ=             -0.0001   YZ=              0.0007

  Exact polarizability: 219.310  -7.032 179.890  -0.002   0.005 104.754
 Approx polarizability: 219.615  -5.269 227.799  -0.006   0.009 138.810

                      1                      2                      3
                      A                      A                      A
 Frequencies --     18.2097                24.0396                33.6143
 Red. masses --      7.8557                 2.9638                 8.0764
 Frc consts  --      0.0015                 0.0010                 0.0054
 IR Inten    --      0.0616                 2.1118                 0.0452

                      4                      5                      6
                      A                      A                      A
 Frequencies --     52.0635                73.9634                74.9829
 Red. masses --      5.5420                 4.9682                 2.5411
 Frc consts  --      0.0089                 0.0160                 0.0084
 IR Inten    --      0.2085                 0.0573                 3.8855

                      7                      8                      9
                      A                      A                      A
 Frequencies --    102.3690               115.0290               144.8567
 Red. masses --      6.3540                 8.7860                 8.5995
 Frc consts  --      0.0392                 0.0685                 0.1063
 IR Inten    --      0.1481                 1.9480                 1.0748

                     10                     11                     12
                      A                      A                      A
 Frequencies --    169.2432               193.5098               194.4251
 Red. masses --      3.2415                 5.6107                 9.0070
 Frc consts  --      0.0547                 0.1238                 0.2006
 IR Inten    --      2.7063                 0.1898                 0.8035

                     13                     14                     15
                      A                      A                      A
 Frequencies --    220.0248               235.0266               250.3852
 Red. masses --     10.0101                 1.1498                 4.4232
 Frc consts  --      0.2855                 0.0374                 0.1634
 IR Inten    --      0.5049                 0.0554                 0.6623

                     16                     17                     18
                      A                      A                      A
 Frequencies --    268.8347               272.7485               332.6962
 Red. masses --      5.7518                 7.4947                 6.1348
 Frc consts  --      0.2449                 0.3285                 0.4001
 IR Inten    --      0.5410                 0.0000                 1.3671

                     19                     20                     21
                      A                      A                      A
 Frequencies --    337.7392               366.7026               387.0207
 Red. masses --     18.8493                 6.2153                13.3631
 Frc consts  --      1.2668                 0.4924                 1.1793
 IR Inten    --      0.0000                31.9809                 1.6402

                     22                     23                     24
                      A                      A                      A
 Frequencies --    389.0135               431.9829               453.7655
 Red. masses --     11.4924                 8.0428                18.8411
 Frc consts  --      1.0247                 0.8843                 2.2857
 IR Inten    --      1.7598                 2.8604                 0.0114

                     25                     26                     27
                      A                      A                      A
 Frequencies --    470.1683               492.7765               533.6972
 Red. masses --      5.1459                 6.9910                 2.8052
 Frc consts  --      0.6702                 1.0002                 0.4708
 IR Inten    --      0.0739                 2.2869                53.0482

                     28                     29                     30
                      A                      A                      A
 Frequencies --    540.9823               553.5012               572.9515
 Red. masses --      1.9048                13.7351                 3.8753
 Frc consts  --      0.3284                 2.4792                 0.7495
 IR Inten    --     16.2375                10.7900                10.2650

                     31                     32                     33
                      A                      A                      A
 Frequencies --    586.3802               599.1115               612.4972
 Red. masses --     18.5098                18.5020                 6.0753
 Frc consts  --      3.7498                 3.9128                 1.3428
 IR Inten    --    104.4250                 0.3853                 2.4805

                     34                     35                     36
                      A                      A                      A
 Frequencies --    649.0250               663.7392               690.3409
 Red. masses --     10.0269                 9.2868                 2.4976
 Frc consts  --      2.4885                 2.4105                 0.7013
 IR Inten    --     30.3145                 8.9124                19.8684

                     37                     38                     39
                      A                      A                      A
 Frequencies --    762.8053               765.2934               790.3829
 Red. masses --     11.7623                 1.1285                 7.5531
 Frc consts  --      4.0324                 0.3894                 2.7801
 IR Inten    --    203.8764                 5.6233                16.6236

                     40                     41                     42
                      A                      A                      A
 Frequencies --    791.5642               861.7516               873.8229
 Red. masses --      9.3619                 2.6856                22.6055
 Frc consts  --      3.4561                 1.1750                10.1698
 IR Inten    --     38.5971                71.5009               335.2566

                     43                     44                     45
                      A                      A                      A
 Frequencies --    875.3577               880.6741               889.5668
 Red. masses --      3.0757                 1.4120                15.7313
 Frc consts  --      1.3885                 0.6452                 7.3345
 IR Inten    --    361.2165                 0.5941               318.7911

                     46                     47                     48
                      A                      A                      A
 Frequencies --    904.8383               928.3978               939.3043
 Red. masses --      1.1537                 1.7738                 1.3694
 Frc consts  --      0.5565                 0.9008                 0.7119
 IR Inten    --      2.2452                 3.6023                10.4173

                     49                     50                     51
                      A                      A                      A
 Frequencies --    971.0803              1012.8508              1028.3180
 Red. masses --      5.0728                 5.9245                 7.1366
 Frc consts  --      2.8184                 3.5809                 4.4463
 IR Inten    --     62.1443                 2.1514                 4.6360

                     52                     53                     54
                      A                      A                      A
 Frequencies --   1076.1998              1135.8450              1156.8924
 Red. masses --      2.5326                 4.7655                 1.5620
 Frc consts  --      1.7282                 3.6224                 1.2317
 IR Inten    --      3.4286               130.0004                 9.1146

                     55                     56                     57
                      A                      A                      A
 Frequencies --   1166.6193              1171.2093              1196.9396
 Red. masses --      1.8268                 2.1889                 1.6607
 Frc consts  --      1.4649                 1.7690                 1.4018
 IR Inten    --     32.7187                14.3161                 0.8332

                     58                     59                     60
                      A                      A                      A
 Frequencies --   1257.7798              1294.5905              1297.3650
 Red. masses --      2.2841                 1.1849                 2.4753
 Frc consts  --      2.1290                 1.1701                 2.4547
 IR Inten    --    572.2768                 0.7461               419.2503

                     61                     62                     63
                      A                      A                      A
 Frequencies --   1314.4338              1339.2747              1348.7825
 Red. masses --      2.4763                 1.0671                 1.4251
 Frc consts  --      2.5208                 1.1277                 1.5275
 IR Inten    --     28.7833                 0.4526                 7.5351

                     64                     65                     66
                      A                      A                      A
 Frequencies --   1351.5968              1434.4557              1444.1530
 Red. masses --      2.6039                 1.2804                 1.5198
 Frc consts  --      2.8027                 1.5522                 1.8675
 IR Inten    --     21.0239                 2.7601                43.2757

                     67                     68                     69
                      A                      A                      A
 Frequencies --   1474.2484              1511.0203              1514.3654
 Red. masses --      2.9724                 1.0632                 3.4874
 Frc consts  --      3.8063                 1.4303                 4.7120
 IR Inten    --    129.9270                 1.1008                69.1873

                     70                     71                     72
                      A                      A                      A
 Frequencies --   1524.5727              1525.2697              1537.4949
 Red. masses --      1.0366                 1.0815                 1.0958
 Frc consts  --      1.4195                 1.4824                 1.5261
 IR Inten    --     10.5259                 0.6014                41.2244

                     73                     74                     75
                      A                      A                      A
 Frequencies --   1589.4349              1658.8465              1681.1918
 Red. masses --      2.3375                 5.0501                 6.6669
 Frc consts  --      3.4792                 8.1876                11.1022
 IR Inten    --    731.9144               165.3983               108.5124

                     76                     77                     78
                      A                      A                      A
 Frequencies --   1851.5333              3071.6926              3080.2538
 Red. masses --     10.5695                 1.0379                 1.0597
 Frc consts  --     21.3486                 5.7700                 5.9237
 IR Inten    --    291.9729                18.0921                 7.0348

                     79                     80                     81
                      A                      A                      A
 Frequencies --   3092.2368              3112.9915              3135.3022
 Red. masses --      1.0575                 1.1044                 1.1060
 Frc consts  --      5.9574                 6.3058                 6.4059
 IR Inten    --     31.6785                 0.0594                 1.3065

                     82                     83                     84
                      A                      A                      A
 Frequencies --   3149.5141              3151.9905              3236.8161
 Red. masses --      1.1072                 1.1016                 1.0923
 Frc consts  --      6.4706                 6.4481                 6.7425
 IR Inten    --     54.8983                23.2275                 3.3441

                     85                     86                     87
                      A                      A                      A
 Frequencies --   3262.9247              3279.1676              3654.4092
 Red. masses --      1.0936                 1.0929                 1.0773
 Frc consts  --      6.8599                 6.9237                 8.4768
 IR Inten    --      9.8254                19.7579                50.1724

 - Thermochemistry -
 -------------------
 Temperature   298.150 Kelvin.  Pressure   1.00000 Atm.
 Atom     1 has atomic number  6 and mass  12.00000

 Molecular mass:   339.01192 amu.
 Principal axes and moments of inertia in atomic units:
                           1         2         3
     Eigenvalues --  4045.48422********************
           X            0.99976  -0.02177   0.00000
           Y            0.02177   0.99976  -0.00000
           Z           -0.00000   0.00000   1.00000
 This molecule is an asymmetric top.
 Rotational symmetry number  1.
 Warning -- assumption of classical behavior for rotation
           may cause significant error
 Rotational temperatures (Kelvin)      0.02141     0.00564     0.00464
 Rotational constants (GHZ):           0.44611     0.11747     0.09666
 Zero-point vibrational energy     571006.5 (Joules/Mol)
                                  136.47384 (Kcal/Mol)
 Warning -- explicit consideration of  33 degrees of freedom as
           vibrations may cause significant error
 Vibrational temperatures:     26.20    34.59    48.36    74.91   106.42
          (Kelvin)            107.88   147.29   165.50   208.42   243.50
                              278.42   279.73   316.57   338.15   360.25
                              386.79   392.42   478.68   485.93   527.60
                              556.84   559.70   621.53   652.87   676.47
                              708.99   767.87   778.35   796.36   824.35
                              843.67   861.99   881.25   933.80   954.97
                              993.25  1097.51  1101.09  1137.18  1138.88
                             1239.87  1257.23  1259.44  1267.09  1279.89
                             1301.86  1335.76  1351.45  1397.17  1457.26
                             1479.52  1548.41  1634.23  1664.51  1678.50
                             1685.11  1722.13  1809.66  1862.62  1866.62
                             1891.17  1926.92  1940.59  1944.64  2063.86
                             2077.81  2121.11  2174.02  2178.83  2193.52
                             2194.52  2212.11  2286.84  2386.71  2418.86
                             2663.94  4419.47  4431.79  4449.03  4478.89
                             4510.99  4531.44  4535.01  4657.05  4694.61
                             4717.98  5257.87

 Zero-point correction=                           0.217485 (Hartree/Particle)
 Thermal correction to Energy=                    0.237180
 Thermal correction to Enthalpy=                  0.238124
 Thermal correction to Gibbs Free Energy=         0.166255
 Sum of electronic and zero-point Energies=          -1950.074965
 Sum of electronic and thermal Energies=             -1950.055270
 Sum of electronic and thermal Enthalpies=           -1950.054326
 Sum of electronic and thermal Free Energies=        -1950.126195

                     E (Thermal)             CV                S
                      KCal/Mol        Cal/Mol-Kelvin    Cal/Mol-Kelvin
 Total                  148.833             72.576            151.262
 Electronic               0.000              0.000              0.000
 Translational            0.889              2.981             43.357
 Rotational               0.889              2.981             35.405
 Vibrational            147.055             66.614             72.500
 Vibration     1          0.593              1.986              6.820
 Vibration     2          0.593              1.985              6.269
 Vibration     3          0.594              1.983              5.604
 Vibration     4          0.596              1.977              4.737
 Vibration     5          0.599              1.966              4.045
 Vibration     6          0.599              1.966              4.018
 Vibration     7          0.604              1.947              3.409
 Vibration     8          0.608              1.937              3.182
 Vibration     9          0.616              1.908              2.739
 Vibration    10          0.625              1.880              2.444
 Vibration    11          0.635              1.849              2.194
 Vibration    12          0.635              1.848              2.185
 Vibration    13          0.647              1.811              1.959
 Vibration    14          0.655              1.787              1.840
 Vibration    15          0.663              1.762              1.728
 Vibration    16          0.673              1.730              1.604
 Vibration    17          0.676              1.724              1.579
 Vibration    18          0.715              1.610              1.247
 Vibration    19          0.718              1.600              1.223
 Vibration    20          0.740              1.541              1.094
 Vibration    21          0.755              1.498              1.012
 Vibration    22          0.757              1.494              1.004
 Vibration    23          0.793              1.401              0.852
 Vibration    24          0.812              1.353              0.784
 Vibration    25          0.827              1.316              0.737
 Vibration    26          0.848              1.266              0.676
 Vibration    27          0.889              1.175              0.579
 Vibration    28          0.896              1.159              0.563
 Vibration    29          0.909              1.132              0.537
 Vibration    30          0.929              1.090              0.499
 Vibration    31          0.943              1.061              0.474
 Vibration    32          0.957              1.034              0.451
 Vibration    33          0.972              1.005              0.429

 Optimization completed.
    -- Stationary point found.
 Normal termination of Gaussian 09 at Thu Nov 14 18:55:33 2019.
