 Gaussian 16, Revision C.01,
 Gaussian 16:  ES64L-G16RevC.01  3-Jul-2019

 ----------------------------------------------------------------------
 # DSDPBEP86/AUG-cc-PVTZ SCF=Tight INT(grid=ultrafine) MaxDisk=1400000M
 B
 ----------------------------------------------------------------------

 ----------------------------
 CP22CA.DSDPBEP86_AUG-cc-PVTZ
 ----------------------------
 Symbolic Z-matrix:
 Charge =  0 Multiplicity = 1

                         Standard orientation:
 ---------------------------------------------------------------------
 Center     Atomic      Atomic             Coordinates (Angstroms)
 Number     Number       Type             X           Y           Z
 ---------------------------------------------------------------------
      1          6           0        0.509254    1.098254   -0.000146
      2          7           0        1.906379    1.099830   -0.000352
      3          6           0        2.741028    0.006678   -0.000087
      4          8           0        2.401871   -1.146990    0.000377
      5          8           0        4.012411    0.432900   -0.000424
      6          6           0        5.008944   -0.603354   -0.000181
      7          6           0        6.366629    0.064570    0.000087
      8          6           0        7.484100   -0.975138    0.000351
      9          6           0       -0.252198   -0.074087   -0.000108
     10          6           0       -1.631079    0.051061    0.000002
     11          6           0       -2.300359    1.263168    0.000082
     12          6           0       -1.513922    2.406676    0.000055
     13          6           0       -0.131737    2.340744   -0.000050
     14          1           0        2.370735    1.995937   -0.000562
     15          1           0        4.864067   -1.229659   -0.883642
     16          1           0        4.863705   -1.229625    0.883241
     17          1           0        6.446047    0.709847    0.879141
     18          1           0        6.446434    0.709804   -0.878965
     19          1           0        7.428694   -1.617173    0.882730
     20          1           0        8.463809   -0.496044    0.000650
     21          1           0        7.429192   -1.617101   -0.882112
     22          1           0        0.227459   -1.040364   -0.000162
     23         17           0       -2.283170    3.964587    0.000157
     24          1           0        0.446095    3.258200   -0.000068
     25         16           0       -2.619983   -1.469256   -0.000001
     26          1           0       -3.379262    1.328203    0.000160
     27          9           0       -1.704039   -2.146951    1.140469
     28          9           0       -3.613420   -0.898302    1.139362
     29          9           0       -1.703856   -2.147075   -1.140256
     30          9           0       -3.613220   -0.898404   -1.139592
     31          9           0       -3.500602   -2.811427   -0.000009
 ---------------------------------------------------------------------

 SCF Done:  E(RDSDPBEP86) =  -1946.60370618     A.U. after   14 cycles
 E2(DSDPBEP86) =    -0.2006725225D+01 E(DSDPBEP86) =    -0.19486104314047D+04

 The electronic state is 1-A.
 Alpha  occ. eigenvalues -- -103.58979 -91.16684 -25.71205 -25.71204 -25.71203
 Alpha  occ. eigenvalues --  -25.71202 -25.71093 -20.06885 -20.00256 -15.14848
 Alpha  occ. eigenvalues --  -11.00576 -10.91774 -10.91455 -10.89474 -10.88727
 Alpha  occ. eigenvalues --  -10.86315 -10.86188 -10.85577 -10.83031 -10.82003
 Alpha  occ. eigenvalues --  -10.16475  -8.91171  -7.74157  -7.73677  -7.73665
 Alpha  occ. eigenvalues --   -6.70278  -6.70266  -6.69871  -1.59484  -1.49866
 Alpha  occ. eigenvalues --   -1.49806  -1.46907  -1.45485  -1.36120  -1.25859
 Alpha  occ. eigenvalues --   -1.17782  -1.10759  -1.05093  -1.00108  -0.98101
 Alpha  occ. eigenvalues --   -0.94447  -0.92876  -0.87494  -0.81582  -0.80870
 Alpha  occ. eigenvalues --   -0.77329  -0.77262  -0.75051  -0.74085  -0.73173
 Alpha  occ. eigenvalues --   -0.69679  -0.68430  -0.66470  -0.66306  -0.65656
 Alpha  occ. eigenvalues --   -0.64580  -0.64285  -0.61493  -0.61464  -0.59652
 Alpha  occ. eigenvalues --   -0.59562  -0.59257  -0.59120  -0.59083  -0.58392
 Alpha  occ. eigenvalues --   -0.56693  -0.56407  -0.55828  -0.55294  -0.55237
 Alpha  occ. eigenvalues --   -0.53690  -0.53659  -0.51215  -0.51146  -0.50105
 Alpha  occ. eigenvalues --   -0.48078  -0.47715  -0.46689  -0.44997  -0.44695
 Alpha  occ. eigenvalues --   -0.42446  -0.42346  -0.42228  -0.41395  -0.34302
 Alpha  occ. eigenvalues --   -0.31313
 Alpha virt. eigenvalues --    0.00760   0.01515   0.01537   0.02501   0.02621
 Alpha virt. eigenvalues --    0.03025   0.03319   0.03629   0.04438   0.04853
 Alpha virt. eigenvalues --    0.04960   0.05199   0.05391   0.06621   0.06762

 Mulliken charges:
               1
     1  C    0.422689
     2  N   -0.180394
     3  C    0.374880
     4  O   -0.780983
     5  O   -0.400284
     6  C   -0.206365
     7  C   -0.482024
     8  C   -0.964875
     9  C   -0.822338
    10  C    0.991370
    11  C   -0.819440
    12  C    0.442281
    13  C   -0.679317
    14  H   -0.005487
    15  H    0.335018
    16  H    0.335218
    17  H    0.213452
    18  H    0.213452
    19  H    0.279516
    20  H    0.287681
    21  H    0.279526
    22  H    0.690010
    23  Cl  -0.417728
    24  H    0.523315
    25  S    2.712357
    26  H    0.520616
    27  F   -0.582692
    28  F   -0.586438
    29  F   -0.582695
    30  F   -0.586433
    31  F   -0.523890
 Sum of Mulliken charges =  -0.00000

 Dipole moment (field-independent basis, Debye):
    X=              5.4657    Y=              3.4985    Z=             -0.0007  Tot=              6.4895
 Quadrupole moment (field-independent basis, Debye-Ang):
   XX=           -113.3786   YY=           -132.2847   ZZ=           -130.4762
   XY=             -0.9923   XZ=             -0.0015   YZ=              0.0007

 Normal termination of Gaussian 16 at Tue Sep 22 17:54:11 2020.
