 Gaussian 16, Revision C.01,

 ----------------------------------------------------------------------
 # M062X/6-311+G* SCF=Tight INT(grid=ultrafine) OPT=CalcFC IOP(2/17=4)
 EmpiricalDispersion=GD3 SCRF=(SMD,Solvent=n-Pentadecane) MaxDisk=10000
 MB
 ----------------------------------------------------------------------

 ------------------------------------------------
 NM2CA_carboxy.M062X_6-311pGd_opt_Pentadecane_GD3
 ------------------------------------------------
 Symbolic Z-matrix:
 Charge = -1 Multiplicity = 1

 SCF Done:  E(RM062X) =  -1535.95662734     A.U. after   16 cycles
 SCF Done:  E(RM062X) =  -1535.98525786     A.U. after   14 cycles
 SCF Done:  E(RM062X) =  -1536.01376757     A.U. after   15 cycles
 SCF Done:  E(RM062X) =  -1536.01283541     A.U. after   14 cycles
 SCF Done:  E(RM062X) =  -1536.01775287     A.U. after   15 cycles
 SCF Done:  E(RM062X) =  -1535.99019617     A.U. after   16 cycles
 SCF Done:  E(RM062X) =  -1536.01677429     A.U. after   16 cycles
 SCF Done:  E(RM062X) =  -1536.01822375     A.U. after   13 cycles
 SCF Done:  E(RM062X) =  -1535.83722366     A.U. after   16 cycles
 SCF Done:  E(RM062X) =  -1536.00633803     A.U. after   15 cycles
 SCF Done:  E(RM062X) =  -1536.02011690     A.U. after   10 cycles
 SCF Done:  E(RM062X) =  -1536.02011799     A.U. after   10 cycles
 SCF Done:  E(RM062X) =  -1536.02011911     A.U. after   10 cycles
 SCF Done:  E(RM062X) =  -1536.02011855     A.U. after   10 cycles
 SCF Done:  E(RM062X) =  -1536.02011886     A.U. after    9 cycles
 SCF Done:  E(RM062X) =  -1536.02011912     A.U. after   10 cycles
 SCF Done:  E(RM062X) =  -1536.02012019     A.U. after   10 cycles
 SCF Done:  E(RM062X) =  -1536.02012003     A.U. after    9 cycles
 SCF Done:  E(RM062X) =  -1536.02012022     A.U. after    9 cycles
 Optimization completed.
    -- Stationary point found.
 Normal termination of Gaussian 16 at Mon Mar 22 13:29:39 2021.
 Gaussian 16:  ES64L-G16RevC.01  3-Jul-2019

 ----------------------------------------------------------------------
 # M062X/6-311+G* SCF=Tight INT(grid=ultrafine) EmpiricalDispersion=GD3
  SCRF=(SMD,Solvent=n-Pentadecane) Freq=Noraman MaxDisk=10000MB geom=ch
 eck guess=read IOP(2/17=4)
 ----------------------------------------------------------------------

 ------------------------------------------------
 NM2CA_carboxy.M062X_6-311pGd_opt_Pentadecane_GD3
 ------------------------------------------------
 Structure from the checkpoint file:  "NM2CA_carboxy.M062X_6-311pGd_opt_Pentadecane_GD3.chk"
 Charge = -1 Multiplicity = 1

                         Standard orientation:
 ---------------------------------------------------------------------
 Center     Atomic      Atomic             Coordinates (Angstroms)
 Number     Number       Type             X           Y           Z
 ---------------------------------------------------------------------
      1          6           0        0.055423   -0.021719   -0.042493
      2          7           0       -1.306245   -0.289511   -0.049821
      3          6           0       -1.881509   -1.522375   -0.034257
      4          8           0       -1.317961   -2.597323   -0.015626
      5          8           0       -3.219343   -1.394437   -0.044277
      6          6           0       -3.963581   -2.612405   -0.038338
      7          6           0       -5.433102   -2.246786   -0.054962
      8          6           0       -6.308656   -3.495460   -0.053103
      9          6           0        1.054661   -1.006758   -0.006089
     10          6           0        2.395749   -0.646404    0.003238
     11          6           0        2.776791    0.702577   -0.009930
     12          6           0        1.774042    1.669883   -0.059311
     13          6           0        0.434571    1.326636   -0.075965
     14          1           0       -1.946793    0.543265   -0.056227
     15          1           0       -3.705470   -3.191061    0.853458
     16          1           0       -3.690048   -3.208641   -0.913857
     17          1           0       -5.636473   -1.637703   -0.939814
     18          1           0       -5.652785   -1.622703    0.815415
     19          1           0       -6.113127   -4.119975   -0.929303
     20          1           0       -7.368335   -3.232902   -0.064566
     21          1           0       -6.128911   -4.106560    0.835825
     22          1           0        0.777109   -2.048676    0.008054
     23          1           0       -0.325537    2.107076   -0.117467
     24          6           0        4.205194    1.167028   -0.015171
     25          6           0        3.398492   -1.772064    0.069161
     26          1           0        2.041443    2.719107   -0.080336
     27          9           0        4.984369    0.483618    0.839906
     28          9           0        4.307301    2.460353    0.335955
     29          9           0        4.785705    1.067750   -1.226823
     30          9           0        2.862290   -2.947751   -0.289862
     31          9           0        3.889306   -1.948908    1.309053
     32          9           0        4.450693   -1.575374   -0.741525
     33          8           0       -1.709772    3.701813   -0.226301
     34          8           0       -2.961557    1.854341   -0.018408
     35          6           0       -2.792786    3.102890   -0.085299
     36          6           0       -4.060272    3.973815   -0.005680
     37          6           0       -5.320212    3.233187    0.419585
     38          1           0       -4.194922    4.422193   -0.996560
     39          1           0       -3.844377    4.807258    0.668957
     40          1           0       -5.535871    2.409297   -0.262451
     41          1           0       -6.186690    3.901848    0.440408
     42          1           0       -5.202257    2.800160    1.415473
 ---------------------------------------------------------------------

 SCF Done:  E(RM062X) =  -1536.02012022     A.U. after    2 cycles

 The electronic state is 1-A.
 Alpha  occ. eigenvalues --  -25.24107 -25.24014 -25.23999 -25.23852 -25.23710
 Alpha  occ. eigenvalues --  -25.23491 -19.61522 -19.55670 -19.49037 -19.48282
 Alpha  occ. eigenvalues --  -14.72246 -10.76769 -10.76626 -10.64943 -10.56010
 Alpha  occ. eigenvalues --  -10.55065 -10.54916 -10.54542 -10.53666 -10.51768
 Alpha  occ. eigenvalues --  -10.51337 -10.49843 -10.49664 -10.49400 -10.46127
 Alpha  occ. eigenvalues --  -10.46029  -1.43596  -1.43095  -1.34156  -1.33791
 Alpha  occ. eigenvalues --   -1.33670  -1.33404  -1.19607  -1.09553  -1.07770
 Alpha  occ. eigenvalues --   -1.01006  -0.98070  -0.94567  -0.86274  -0.85097
 Alpha  occ. eigenvalues --   -0.84226  -0.79380  -0.78295  -0.77082  -0.74778
 Alpha  occ. eigenvalues --   -0.69923  -0.69627  -0.66389  -0.65923  -0.65645
 Alpha  occ. eigenvalues --   -0.65641  -0.65175  -0.64549  -0.64047  -0.62175
 Alpha  occ. eigenvalues --   -0.59876  -0.57881  -0.54493  -0.54353  -0.54139
 Alpha  occ. eigenvalues --   -0.54100  -0.53597  -0.53442  -0.51426  -0.51267
 Alpha  occ. eigenvalues --   -0.50740  -0.50040  -0.49102  -0.48999  -0.48885
 Alpha  occ. eigenvalues --   -0.47907  -0.47575  -0.47466  -0.47385  -0.46355
 Alpha  occ. eigenvalues --   -0.45977  -0.45547  -0.45067  -0.44298  -0.44033
 Alpha  occ. eigenvalues --   -0.41955  -0.41417  -0.40880  -0.39991  -0.39475
 Alpha  occ. eigenvalues --   -0.38903  -0.38386  -0.37559  -0.36682  -0.36327
 Alpha  occ. eigenvalues --   -0.35339  -0.34451  -0.33280  -0.32786  -0.31485
 Alpha  occ. eigenvalues --   -0.28545  -0.24617  -0.24249  -0.23537  -0.23013
 Alpha virt. eigenvalues --    0.03164   0.04884   0.04983   0.06050   0.06340
 Alpha virt. eigenvalues --    0.06884   0.07307   0.07404   0.07750   0.08434
 Alpha virt. eigenvalues --    0.08485   0.09225   0.09462   0.09803   0.10100

 Mulliken charges:
               1
     1  C   -0.236599
     2  N   -0.620121
     3  C   -0.017768
     4  O   -0.340189
     5  O   -0.027190
     6  C   -0.257575
     7  C   -0.146980
     8  C   -1.110593
     9  C   -0.533163
    10  C   -0.284402
    11  C   -0.707620
    12  C    0.122880
    13  C   -0.325337
    14  H    0.616125
    15  H    0.257113
    16  H    0.254963
    17  H    0.269863
    18  H    0.269258
    19  H    0.258876
    20  H    0.271749
    21  H    0.258701
    22  H    0.329358
    23  H    0.411497
    24  C    1.107707
    25  C    0.324514
    26  H    0.288968
    27  F   -0.084958
    28  F   -0.122959
    29  F   -0.051741
    30  F   -0.127150
    31  F   -0.055823
    32  F   -0.087351
    33  O   -0.473649
    34  O   -0.503024
    35  C    0.112144
    36  C   -0.343402
    37  C   -0.952669
    38  H    0.256118
    39  H    0.247938
    40  H    0.256979
    41  H    0.238526
    42  H    0.256984
 Sum of Mulliken charges =  -1.00000

 Dipole moment (field-independent basis, Debye):
    X=             -0.4904    Y=             -6.2631    Z=              0.2928  Tot=              6.2890
 Quadrupole moment (field-independent basis, Debye-Ang):
   XX=           -198.0391   YY=           -193.6684   ZZ=           -154.8899
   XY=             23.3395   XZ=             -0.0930   YZ=              2.0023

  Exact polarizability:     298.195      17.452     248.155      -1.112      -2.469     148.784
 Approx polarizability:     273.284      13.218     263.753       0.004      -2.726     178.095

                      1                      2                      3
                      A                      A                      A
 Frequencies --     16.1000                32.1380                36.1116
 Red. masses --      6.6738                 4.9467                 2.7668
 Frc consts  --      0.0010                 0.0030                 0.0021
 IR Inten    --      0.5031                 0.7341                 0.0105

                      4                      5                      6
                      A                      A                      A
 Frequencies --     47.3487                56.7314                59.1264
 Red. masses --      4.5305                 8.2117                 3.5363
 Frc consts  --      0.0060                 0.0156                 0.0073
 IR Inten    --      1.5949                 1.1570                 1.6466

                      7                      8                      9
                      A                      A                      A
 Frequencies --     60.5595                73.0436                79.8685
 Red. masses --      6.3119                 4.6738                 2.1539
 Frc consts  --      0.0136                 0.0147                 0.0081
 IR Inten    --      4.0014                 5.2729                 0.7357

                     10                     11                     12
                      A                      A                      A
 Frequencies --     85.7313                89.7391                94.7184
 Red. masses --      4.6029                 4.5057                18.6728
 Frc consts  --      0.0199                 0.0214                 0.0987
 IR Inten    --      0.0946                 7.9508                 0.0623

                     13                     14                     15
                      A                      A                      A
 Frequencies --    112.0699               127.4395               128.9827
 Red. masses --      5.6926                 7.2659                 8.2044
 Frc consts  --      0.0421                 0.0695                 0.0804
 IR Inten    --      3.0028                 7.8021                27.3237

                     16                     17                     18
                      A                      A                      A
 Frequencies --    139.2933               149.5912               174.2667
 Red. masses --      5.8988                 5.2538                14.0221
 Frc consts  --      0.0674                 0.0693                 0.2509
 IR Inten    --      1.4967                 0.2298                 1.3575

                     19                     20                     21
                      A                      A                      A
 Frequencies --    177.6429               208.4289               231.9853
 Red. masses --      4.5376                 8.1004                 1.1193
 Frc consts  --      0.0844                 0.2073                 0.0355
 IR Inten    --      3.3018                 0.7055                 0.7058

                     22                     23                     24
                      A                      A                      A
 Frequencies --    234.5456               239.9545               254.0168
 Red. masses --      1.1679                 7.1080                 8.3443
 Frc consts  --      0.0379                 0.2411                 0.3172
 IR Inten    --      0.0249                 3.9292                 0.1699

                     25                     26                     27
                      A                      A                      A
 Frequencies --    267.5331               304.8176               327.9787
 Red. masses --      7.1069                 4.0320                 8.2317
 Frc consts  --      0.2997                 0.2207                 0.5217
 IR Inten    --      2.9875                21.7935                 1.3065

                     28                     29                     30
                      A                      A                      A
 Frequencies --    343.1892               361.3566               393.9929
 Red. masses --     13.6361                 4.9354                 8.1895
 Frc consts  --      0.9463                 0.3797                 0.7490
 IR Inten    --      0.3189                16.6069                 5.9836

                     31                     32                     33
                      A                      A                      A
 Frequencies --    406.2743               424.6396               467.7670
 Red. masses --      6.2734                 5.5123                 7.5357
 Frc consts  --      0.6101                 0.5856                 0.9715
 IR Inten    --     49.4930                 1.3078                 4.7247

                     34                     35                     36
                      A                      A                      A
 Frequencies --    482.9484               506.1945               512.3802
 Red. masses --      6.3203                 5.1395                 6.2330
 Frc consts  --      0.8685                 0.7759                 0.9641
 IR Inten    --      0.9466                 0.8335                30.5281

                     37                     38                     39
                      A                      A                      A
 Frequencies --    544.0294               574.2473               588.2708
 Red. masses --     12.5563                14.8544                 2.1730
 Frc consts  --      2.1896                 2.8860                 0.4431
 IR Inten    --      1.7028                 2.6083                 9.7426

                     40                     41                     42
                      A                      A                      A
 Frequencies --    611.8385               622.8711               661.8470
 Red. masses --      6.6656                 8.8338                 4.9567
 Frc consts  --      1.4701                 2.0193                 1.2793
 IR Inten    --     10.5364                 0.7119                33.5510

                     43                     44                     45
                      A                      A                      A
 Frequencies --    665.0329               668.1801               683.2517
 Red. masses --      5.9938                 5.9561                 9.2878
 Frc consts  --      1.5618                 1.5667                 2.5546
 IR Inten    --      9.5326                 2.1929                28.2408

                     46                     47                     48
                      A                      A                      A
 Frequencies --    760.5642               763.6561               773.2429
 Red. masses --      5.0867                 1.1056                10.4241
 Frc consts  --      1.7336                 0.3799                 3.6721
 IR Inten    --      2.4630                 4.9931                14.5411

                     49                     50                     51
                      A                      A                      A
 Frequencies --    776.8452               798.0107               800.6351
 Red. masses --     10.1663                 8.8513                 9.3815
 Frc consts  --      3.6148                 3.3211                 3.5432
 IR Inten    --      8.6636                24.7971                18.9546

                     52                     53                     54
                      A                      A                      A
 Frequencies --    824.5030               885.2793               908.8911
 Red. masses --      1.4665                 4.0650                 1.1570
 Frc consts  --      0.5874                 1.8770                 0.5631
 IR Inten    --      9.5026                50.4299                 1.1500

                     55                     56                     57
                      A                      A                      A
 Frequencies --    910.5598               930.0222               938.6151
 Red. masses --      1.3355                 1.7655                 1.4541
 Frc consts  --      0.6524                 0.8997                 0.7548
 IR Inten    --     32.3397                10.8105                38.1862

                     58                     59                     60
                      A                      A                      A
 Frequencies --    959.3589              1020.0544              1028.4321
 Red. masses --      4.8191                 1.6847                 5.2741
 Frc consts  --      2.6132                 1.0328                 3.2866
 IR Inten    --     19.5456                 6.5366                 5.7170

                     61                     62                     63
                      A                      A                      A
 Frequencies --   1033.8592              1045.8165              1069.8157
 Red. masses --      1.1361                 6.4372                 1.2390
 Frc consts  --      0.7154                 4.1482                 0.8355
 IR Inten    --     65.8796                69.1772                22.9216

                     64                     65                     66
                      A                      A                      A
 Frequencies --   1078.8482              1105.1797              1110.5695
 Red. masses --      2.5172                 1.7731                 2.3475
 Frc consts  --      1.7262                 1.2760                 1.7059
 IR Inten    --      1.0738                 1.6731                 9.8076

                     67                     68                     69
                      A                      A                      A
 Frequencies --   1130.1192              1144.5364              1156.5897
 Red. masses --      4.2080                 4.9440                10.5203
 Frc consts  --      3.1665                 3.8158                 8.2916
 IR Inten    --    154.8340               357.4224                29.6747

                     70                     71                     72
                      A                      A                      A
 Frequencies --   1164.5629              1168.4425              1185.6448
 Red. masses --      5.1374                 2.6865                12.3619
 Frc consts  --      4.1051                 2.1610                10.2387
 IR Inten    --    115.6927                15.8952               609.9316

                     73                     74                     75
                      A                      A                      A
 Frequencies --   1194.9202              1216.0146              1233.6902
 Red. masses --      1.6666                 9.5205                 1.5934
 Frc consts  --      1.4020                 8.2944                 1.4289
 IR Inten    --      1.4655               276.9287               474.8917

                     76                     77                     78
                      A                      A                      A
 Frequencies --   1289.7094              1290.8839              1292.8076
 Red. masses --      1.1886                 1.1885                 2.8259
 Frc consts  --      1.1649                 1.1669                 2.7827
 IR Inten    --      0.9992                 6.4165               526.2714

                     79                     80                     81
                      A                      A                      A
 Frequencies --   1303.6869              1320.9387              1331.8135
 Red. masses --      3.6748                 2.4178                 1.6555
 Frc consts  --      3.6798                 2.4856                 1.7300
 IR Inten    --    506.6702               250.2861                32.8694

                     82                     83                     84
                      A                      A                      A
 Frequencies --   1337.4938              1338.0002              1353.7386
 Red. masses --      1.2655                 1.6265                 2.0119
 Frc consts  --      1.3338                 1.7156                 2.1724
 IR Inten    --     99.7089               241.5517               550.4105

                     85                     86                     87
                      A                      A                      A
 Frequencies --   1360.9229              1395.3636              1415.2802
 Red. masses --      3.1857                 3.7298                 1.4250
 Frc consts  --      3.4763                 4.2787                 1.6817
 IR Inten    --    147.6274               339.0410                62.1422

                     88                     89                     90
                      A                      A                      A
 Frequencies --   1429.5018              1447.8458              1450.8864
 Red. masses --      1.2725                 2.0744                 2.5975
 Frc consts  --      1.5321                 2.5621                 3.2216
 IR Inten    --      7.0289               155.5632               242.7706

                     91                     92                     93
                      A                      A                      A
 Frequencies --   1480.7973              1483.5970              1500.8811
 Red. masses --      1.1524                 4.0027                 1.0665
 Frc consts  --      1.4889                 5.1908                 1.4155
 IR Inten    --      2.6648               191.0400                 1.5817

                     94                     95                     96
                      A                      A                      A
 Frequencies --   1506.5887              1518.1226              1519.2010
 Red. masses --      1.0397                 1.0375                 1.0670
 Frc consts  --      1.3904                 1.4089                 1.4510
 IR Inten    --      9.5704                10.6538                42.7688

                     97                     98                     99
                      A                      A                      A
 Frequencies --   1521.3331              1536.5799              1577.4770
 Red. masses --      1.0801                 1.0916                 2.8285
 Frc consts  --      1.4728                 1.5186                 4.1469
 IR Inten    --      2.3972                11.0905                 1.3695

                    100                    101                    102
                      A                      A                      A
 Frequencies --   1631.8942              1660.6803              1684.8796
 Red. masses --      4.2400                 8.1071                 4.2470
 Frc consts  --      6.6527                13.1731                 7.1035
 IR Inten    --    182.8577               183.9491              1281.2174

                    103                    104                    105
                      A                      A                      A
 Frequencies --   1701.7785              1801.2467              2884.7302
 Red. masses --      2.2402                 8.2932                 1.1059
 Frc consts  --      3.8224                15.8532                 5.4221
 IR Inten    --     15.3951               351.3228              2258.0147

                    106                    107                    108
                      A                      A                      A
 Frequencies --   3059.2822              3064.4348              3065.8542
 Red. masses --      1.0487                 1.0375                 1.0568
 Frc consts  --      5.7826                 5.7406                 5.8524
 IR Inten    --     59.2574                27.2627                22.4158

                    109                    110                    111
                      A                      A                      A
 Frequencies --   3073.8569              3084.1434              3102.4522
 Red. masses --      1.0583                 1.0594                 1.0988
 Frc consts  --      5.8915                 5.9373                 6.2314
 IR Inten    --     16.7604                46.7170                16.7154

                    112                    113                    114
                      A                      A                      A
 Frequencies --   3107.3693              3121.6542              3128.0235
 Red. masses --      1.1047                 1.1058                 1.0973
 Frc consts  --      6.2848                 6.3491                 6.3259
 IR Inten    --      5.1717                 0.0303                50.2773

                    115                    116                    117
                      A                      A                      A
 Frequencies --   3139.0315              3140.6338              3142.1154
 Red. masses --      1.0980                 1.1060                 1.1013
 Frc consts  --      6.3746                 6.4277                 6.4061
 IR Inten    --    285.5590                77.2329                45.1702

                    118                    119                    120
                      A                      A                      A
 Frequencies --   3150.8039              3244.2473              3289.8556
 Red. masses --      1.1022                 1.0917                 1.0913
 Frc consts  --      6.4470                 6.7700                 6.9592
 IR Inten    --     40.8700                 0.7105                15.5485

 - Thermochemistry -
 -------------------
 Temperature   298.150 Kelvin.  Pressure   1.00000 Atm.
 Atom     1 has atomic number  6 and mass  12.00000

 Molecular mass:   388.09835 amu.
 Principal axes and moments of inertia in atomic units:
                           1         2         3
     Eigenvalues --  7064.84624********************
           X            0.99995   0.01041  -0.00116
           Y           -0.01041   0.99994   0.00276
           Z            0.00119  -0.00275   1.00000
 This molecule is an asymmetric top.
 Rotational symmetry number  1.
 Warning -- assumption of classical behavior for rotation
           may cause significant error
 Rotational temperatures (Kelvin)      0.01226     0.00468     0.00348
 Rotational constants (GHZ):           0.25545     0.09748     0.07260
 Zero-point vibrational energy     811832.4 (Joules/Mol)
                                  194.03259 (Kcal/Mol)
 Warning -- explicit consideration of  40 degrees of freedom as
           vibrations may cause significant error
 Vibrational temperatures:     23.16    46.24    51.96    68.12    81.62
          (Kelvin)             85.07    87.13   105.09   114.91   123.35
                              129.11   136.28   161.24   183.36   185.58
                              200.41   215.23   250.73   255.59   299.88
                              333.78   337.46   345.24   365.47   384.92
                              438.56   471.89   493.77   519.91   566.87
                              584.54   610.96   673.01   694.86   728.30
                              737.20   782.74   826.21   846.39   880.30
                              896.17   952.25   956.83   961.36   983.05
                             1094.28  1098.73  1112.52  1117.71  1148.16
                             1151.94  1186.28  1273.72  1307.69  1310.09
                             1338.09  1350.46  1380.30  1467.63  1479.68
                             1487.49  1504.70  1539.23  1552.22  1590.11
                             1597.86  1625.99  1646.73  1664.07  1675.55
                             1681.13  1705.88  1719.22  1749.57  1775.01
                             1855.60  1857.29  1860.06  1875.71  1900.54
                             1916.18  1924.36  1925.08  1947.73  1958.06
                             2007.62  2036.27  2056.73  2083.13  2087.50
                             2130.54  2134.57  2159.43  2167.65  2184.24
                             2185.79  2188.86  2210.80  2269.64  2347.93
                             2389.35  2424.17  2448.48  2591.59  4150.48
                             4401.62  4409.04  4411.08  4422.59  4437.39
                             4463.74  4470.81  4491.36  4500.53  4516.37
                             4518.67  4520.80  4533.30  4667.75  4733.37

 Zero-point correction=                           0.309211 (Hartree/Particle)
 Thermal correction to Energy=                    0.335546
 Thermal correction to Enthalpy=                  0.336490
 Thermal correction to Gibbs Free Energy=         0.249033
 Sum of electronic and zero-point Energies=          -1535.710910
 Sum of electronic and thermal Energies=             -1535.684575
 Sum of electronic and thermal Enthalpies=           -1535.683630
 Sum of electronic and thermal Free Energies=        -1535.771088

                     E (Thermal)             CV                S
                      KCal/Mol        Cal/Mol-Kelvin    Cal/Mol-Kelvin
 Total                  210.558             93.100            184.069
 Electronic               0.000              0.000              0.000
 Translational            0.889              2.981             43.760
 Rotational               0.889              2.981             36.429
 Vibrational            208.781             87.138            103.880
 Vibration     1          0.593              1.986              7.065
 Vibration     2          0.594              1.983              5.693
 Vibration     3          0.594              1.982              5.462
 Vibration     4          0.595              1.979              4.925
 Vibration     5          0.596              1.975              4.568
 Vibration     6          0.596              1.974              4.486
 Vibration     7          0.597              1.973              4.439
 Vibration     8          0.599              1.967              4.070
 Vibration     9          0.600              1.963              3.894
 Vibration    10          0.601              1.959              3.755
 Vibration    11          0.602              1.956              3.666
 Vibration    12          0.603              1.953              3.560
 Vibration    13          0.607              1.939              3.233
 Vibration    14          0.611              1.926              2.984
 Vibration    15          0.611              1.924              2.961
 Vibration    16          0.615              1.914              2.814
 Vibration    17          0.618              1.903              2.677
 Vibration    18          0.627              1.874              2.389
 Vibration    19          0.628              1.870              2.353
 Vibration    20          0.642              1.828              2.057
 Vibration    21          0.653              1.792              1.864
 Vibration    22          0.654              1.788              1.844
 Vibration    23          0.657              1.779              1.803
 Vibration    24          0.665              1.756              1.703
 Vibration    25          0.673              1.733              1.612
 Vibration    26          0.696              1.665              1.390
 Vibration    27          0.711              1.620              1.270
 Vibration    28          0.722              1.589              1.197
 Vibration    29          0.736              1.552              1.116
 Vibration    30          0.761              1.483              0.985
 Vibration    31          0.771              1.457              0.940
 Vibration    32          0.787              1.417              0.876
 Vibration    33          0.825              1.322              0.744
 Vibration    34          0.839              1.288              0.702
 Vibration    35          0.861              1.236              0.643
 Vibration    36          0.867              1.223              0.628
 Vibration    37          0.899              1.153              0.557
 Vibration    38          0.931              1.087              0.496
 Vibration    39          0.945              1.057              0.470
 Vibration    40          0.971              1.007              0.430

 Optimization completed.
    -- Stationary point found.
 Normal termination of Gaussian 16 at Tue Mar 23 01:02:38 2021.
