 Gaussian 16, Revision C.01,

 ----------------------------------------------------------------------
 # M062X/6-311+G* SCF=Tight INT(grid=ultrafine) OPT=CalcFC IOP(2/17=4)
 EmpiricalDispersion=GD3 MaxDisk=10000MB
 ----------------------------------------------------------------------

 ----------------------------
 other.M062X_6-311pGd_opt_GD3
 ----------------------------
 Symbolic Z-matrix:
 Charge = -1 Multiplicity = 1

 SCF Done:  E(RM062X) =  -1535.90769471     A.U. after   18 cycles
 SCF Done:  E(RM062X) =  -1535.94241724     A.U. after   17 cycles
 SCF Done:  E(RM062X) =  -1535.95144437     A.U. after   15 cycles
 SCF Done:  E(RM062X) =  -1535.95895214     A.U. after   17 cycles
 SCF Done:  E(RM062X) =  -1535.93044097     A.U. after   17 cycles
 SCF Done:  E(RM062X) =  -1535.96506455     A.U. after   15 cycles
 SCF Done:  E(RM062X) =  -1535.97100583     A.U. after   14 cycles
 SCF Done:  E(RM062X) =  -1535.97693517     A.U. after   15 cycles
 SCF Done:  E(RM062X) =  -1535.95541065     A.U. after   17 cycles
 SCF Done:  E(RM062X) =  -1535.96945231     A.U. after   15 cycles
 SCF Done:  E(RM062X) =  -1535.98176661     A.U. after   12 cycles
 SCF Done:  E(RM062X) =  -1535.98176699     A.U. after   12 cycles
 SCF Done:  E(RM062X) =  -1535.98176689     A.U. after   11 cycles
 SCF Done:  E(RM062X) =  -1535.98176641     A.U. after   12 cycles
 SCF Done:  E(RM062X) =  -1535.98176694     A.U. after   11 cycles
 SCF Done:  E(RM062X) =  -1535.98176703     A.U. after   10 cycles
 SCF Done:  E(RM062X) =  -1535.98176693     A.U. after   11 cycles
 SCF Done:  E(RM062X) =  -1535.98176694     A.U. after    8 cycles
 SCF Done:  E(RM062X) =  -1535.98176694     A.U. after    8 cycles
 Optimization completed.
    -- Stationary point found.
 Normal termination of Gaussian 16 at Tue Apr 13 14:42:13 2021.
 Gaussian 16:  ES64L-G16RevC.01  3-Jul-2019

 ----------------------------------------------------------------------
 # M062X/6-311+G* SCF=Tight INT(grid=ultrafine) EmpiricalDispersion=GD3
  Freq=Noraman MaxDisk=10000MB geom=check guess=read IOP(2/17=4)
 ----------------------------------------------------------------------

 ----------------------------
 other.M062X_6-311pGd_opt_GD3
 ----------------------------
 Structure from the checkpoint file:  "other.M062X_6-311pGd_opt_GD3.chk"
 Charge = -1 Multiplicity = 1

                         Standard orientation:
 ---------------------------------------------------------------------
 Center     Atomic      Atomic             Coordinates (Angstroms)
 Number     Number       Type             X           Y           Z
 ---------------------------------------------------------------------
      1          6           0        0.080098   -0.023323   -0.308724
      2          7           0        1.410286   -0.382860   -0.478313
      3          6           0        1.881236   -1.650366   -0.599101
      4          8           0        1.244620   -2.683199   -0.554961
      5          8           0        3.218897   -1.606857   -0.790411
      6          6           0        3.932582   -2.836928   -0.728729
      7          6           0       -0.986845   -0.935155   -0.268216
      8          6           0       -2.290093   -0.486030   -0.097336
      9          6           0       -2.563603    0.880847    0.051155
     10          6           0       -1.494843    1.774886   -0.003123
     11          6           0       -0.192320    1.345225   -0.180679
     12          1           0        2.125594    0.396867   -0.425290
     13          1           0        4.676606   -2.786353   -1.525672
     14          1           0        3.249707   -3.664759   -0.926948
     15          1           0       -0.789637   -1.990080   -0.374050
     16          1           0        0.620198    2.072308   -0.223959
     17          6           0       -3.945397    1.444108    0.221947
     18          6           0       -3.367503   -1.540333   -0.037320
     19          1           0       -1.680547    2.836531    0.100827
     20          9           0       -4.701262    0.739218    1.080058
     21          9           0       -4.633347    1.508790   -0.934514
     22          9           0       -3.911400    2.702090    0.698493
     23          9           0       -2.960393   -2.708430   -0.557663
     24          9           0       -4.472158   -1.191299   -0.716425
     25          9           0       -3.752551   -1.807621    1.223649
     26          8           0        3.257690    1.532401   -0.175741
     27          6           0        3.166633    2.791368   -0.136259
     28          8           0        2.138038    3.474215   -0.282516
     29          6           0        4.477475    3.563050    0.115217
     30          6           0        5.691923    2.682237    0.376764
     31          1           0        4.294148    4.245253    0.951080
     32          1           0        4.639357    4.204387   -0.757606
     33          1           0        5.532197    2.055157    1.255945
     34          1           0        6.594787    3.280891    0.536698
     35          1           0        5.864552    2.006373   -0.462159
     36          6           0        4.600859   -2.983498    0.630415
     37          1           0        5.305569   -2.157561    0.764119
     38          1           0        5.185443   -3.910597    0.621074
     39          6           0        3.594650   -2.998709    1.778095
     40          1           0        3.060195   -2.047921    1.835937
     41          1           0        2.851793   -3.788374    1.643575
     42          1           0        4.094967   -3.153590    2.736629
 ---------------------------------------------------------------------

 SCF Done:  E(RM062X) =  -1535.98176694     A.U. after    2 cycles

 The electronic state is 1-A.
 Alpha  occ. eigenvalues --  -25.18999 -25.18957 -25.18890 -25.18767 -25.18576
 Alpha  occ. eigenvalues --  -25.18399 -19.56273 -19.50465 -19.43317 -19.42400
 Alpha  occ. eigenvalues --  -14.66764 -10.71630 -10.71539 -10.59798 -10.50652
 Alpha  occ. eigenvalues --  -10.50296 -10.49323 -10.49299 -10.48500 -10.46597
 Alpha  occ. eigenvalues --  -10.46109 -10.45531 -10.44458 -10.44138 -10.40887
 Alpha  occ. eigenvalues --  -10.40735  -1.38463  -1.37985  -1.29039  -1.28669
 Alpha  occ. eigenvalues --   -1.28557  -1.28308  -1.14236  -1.04443  -1.02010
 Alpha  occ. eigenvalues --   -0.95578  -0.92359  -0.89333  -0.81162  -0.79904
 Alpha  occ. eigenvalues --   -0.79040  -0.74014  -0.73174  -0.72016  -0.69981
 Alpha  occ. eigenvalues --   -0.65005  -0.64483  -0.61550  -0.60783  -0.60553
 Alpha  occ. eigenvalues --   -0.60287  -0.60073  -0.60039  -0.58955  -0.56097
 Alpha  occ. eigenvalues --   -0.54486  -0.53269  -0.49415  -0.49228  -0.49042
 Alpha  occ. eigenvalues --   -0.48567  -0.48480  -0.48310  -0.46175  -0.45885
 Alpha  occ. eigenvalues --   -0.45428  -0.44918  -0.43933  -0.43885  -0.43404
 Alpha  occ. eigenvalues --   -0.42487  -0.42403  -0.42295  -0.42227  -0.41539
 Alpha  occ. eigenvalues --   -0.40628  -0.40606  -0.39929  -0.39465  -0.39058
 Alpha  occ. eigenvalues --   -0.37140  -0.36130  -0.35310  -0.34789  -0.34382
 Alpha  occ. eigenvalues --   -0.33274  -0.33088  -0.32954  -0.32246  -0.30920
 Alpha  occ. eigenvalues --   -0.29987  -0.29398  -0.27878  -0.27063  -0.26357
 Alpha  occ. eigenvalues --   -0.23281  -0.18882  -0.18569  -0.18128  -0.17173
 Alpha virt. eigenvalues --    0.08342   0.08645   0.09971   0.10230   0.10408
 Alpha virt. eigenvalues --    0.10675   0.11233   0.11789   0.12280   0.12787
 Alpha virt. eigenvalues --    0.13059   0.13495   0.13673   0.14250   0.14421

 Mulliken charges:
               1
     1  C   -0.866094
     2  N   -0.523693
     3  C    0.015684
     4  O   -0.313756
     5  O    0.061582
     6  C   -0.316946
     7  C    0.379978
     8  C   -0.858299
     9  C   -1.367128
    10  C    0.179151
    11  C   -0.112965
    12  H    0.585248
    13  H    0.244361
    14  H    0.280224
    15  H    0.326579
    16  H    0.423025
    17  C    1.133355
    18  C    0.839102
    19  H    0.276290
    20  F   -0.079111
    21  F   -0.049721
    22  F   -0.122561
    23  F   -0.112363
    24  F   -0.079196
    25  F   -0.046049
    26  O   -0.468994
    27  C    0.067300
    28  O   -0.443832
    29  C   -0.282066
    30  C   -0.975570
    31  H    0.243483
    32  H    0.242553
    33  H    0.253262
    34  H    0.224938
    35  H    0.258944
    36  C   -0.492129
    37  H    0.285106
    38  H    0.237932
    39  C   -0.875988
    40  H    0.303507
    41  H    0.273920
    42  H    0.250935
 Sum of Mulliken charges =  -1.00000

 Dipole moment (field-independent basis, Debye):
    X=             -1.2403    Y=             -5.3995    Z=              0.8476  Tot=              5.6046
 Quadrupole moment (field-independent basis, Debye-Ang):
   XX=           -207.8268   YY=           -189.5386   ZZ=           -156.4039
   XY=            -21.2769   XZ=              2.1068   YZ=              1.4129

  Exact polarizability:     266.154     -16.520     220.965      -3.669       3.304     141.128
 Approx polarizability:     274.540     -14.401     267.178      -8.131       5.727     180.824

                      1                      2                      3
                      A                      A                      A
 Frequencies --      9.2957                14.4746                23.9332
 Red. masses --      4.5820                 4.5994                 4.4659
 Frc consts  --      0.0002                 0.0006                 0.0015
 IR Inten    --      0.9626                 0.3619                 0.9561

                      4                      5                      6
                      A                      A                      A
 Frequencies --     27.3239                31.6971                36.5898
 Red. masses --      2.1312                 8.7516                 4.6661
 Frc consts  --      0.0009                 0.0052                 0.0037
 IR Inten    --      0.9244                 1.0572                 1.1270

                      7                      8                      9
                      A                      A                      A
 Frequencies --     52.0380                57.1401                73.3378
 Red. masses --      6.8621                 8.4595                 5.2028
 Frc consts  --      0.0109                 0.0163                 0.0165
 IR Inten    --      0.6705                 3.0521                 1.1943

                     10                     11                     12
                      A                      A                      A
 Frequencies --     80.5310                85.1081                92.1489
 Red. masses --      6.2645                 5.0007                 6.5032
 Frc consts  --      0.0239                 0.0213                 0.0325
 IR Inten    --      4.3589                 2.5405                 4.5349

                     13                     14                     15
                      A                      A                      A
 Frequencies --     95.0857               116.9323               130.8965
 Red. masses --     18.6091                 5.2456                 5.8855
 Frc consts  --      0.0991                 0.0423                 0.0594
 IR Inten    --      0.0456                 0.2788                30.3446

                     16                     17                     18
                      A                      A                      A
 Frequencies --    135.7481               154.2515               173.6665
 Red. masses --      3.1120                 9.3684                15.2838
 Frc consts  --      0.0338                 0.1313                 0.2716
 IR Inten    --      2.7605                 0.5698                 1.8144

                     19                     20                     21
                      A                      A                      A
 Frequencies --    212.2803               217.2279               226.8278
 Red. masses --      1.1468                 5.2797                 9.9886
 Frc consts  --      0.0304                 0.1468                 0.3028
 IR Inten    --      0.7364                 2.3121                 0.7742

                     22                     23                     24
                      A                      A                      A
 Frequencies --    247.8490               266.9405               276.4945
 Red. masses --      8.7281                 4.2831                 1.4839
 Frc consts  --      0.3159                 0.1798                 0.0668
 IR Inten    --      0.4735                 4.3136                 1.1108

                     25                     26                     27
                      A                      A                      A
 Frequencies --    302.5797               322.3687               328.4035
 Red. masses --      3.6113                 3.4483                 6.3544
 Frc consts  --      0.1948                 0.2111                 0.4038
 IR Inten    --      3.0953                25.5640                 0.0450

                     28                     29                     30
                      A                      A                      A
 Frequencies --    343.7651               373.4219               404.6826
 Red. masses --     13.8525                 3.9055                 5.9598
 Frc consts  --      0.9645                 0.3209                 0.5751
 IR Inten    --      0.1461                14.5223                11.1568

                     31                     32                     33
                      A                      A                      A
 Frequencies --    421.6451               446.0522               472.3837
 Red. masses --      5.3088                 5.9424                 6.9177
 Frc consts  --      0.5561                 0.6966                 0.9095
 IR Inten    --      6.3945                50.7709                 3.7697

                     34                     35                     36
                      A                      A                      A
 Frequencies --    482.3778               509.2115               516.5058
 Red. masses --      6.5031                 5.1286                 2.8216
 Frc consts  --      0.8915                 0.7835                 0.4435
 IR Inten    --      2.2517                 5.9270                 1.8951

                     37                     38                     39
                      A                      A                      A
 Frequencies --    544.6994               572.9507               584.2789
 Red. masses --     12.7636                14.1914                 1.9800
 Frc consts  --      2.2312                 2.7448                 0.3982
 IR Inten    --      1.3507                 1.5573                 3.3117

                     40                     41                     42
                      A                      A                      A
 Frequencies --    611.8993               619.4698               656.8242
 Red. masses --      6.9547                 8.6251                 4.8879
 Frc consts  --      1.5342                 1.9501                 1.2424
 IR Inten    --      7.7036                 0.6248                34.7773

                     43                     44                     45
                      A                      A                      A
 Frequencies --    663.1953               668.1178               680.5641
 Red. masses --      6.7005                 6.0626                 8.4596
 Frc consts  --      1.7364                 1.5945                 2.3085
 IR Inten    --      7.8577                 2.0335                27.9681

                     46                     47                     48
                      A                      A                      A
 Frequencies --    747.7901               758.2994               771.0308
 Red. masses --      5.4501                 5.4558                 3.1578
 Frc consts  --      1.7956                 1.8484                 1.1061
 IR Inten    --     39.6710                 2.6821                 1.7567

                     49                     50                     51
                      A                      A                      A
 Frequencies --    780.6591               794.1524               804.7948
 Red. masses --      4.9012                 5.0412                 3.1507
 Frc consts  --      1.7599                 1.8732                 1.2023
 IR Inten    --      7.0134                11.5808                15.1110

                     52                     53                     54
                      A                      A                      A
 Frequencies --    822.6108               882.3264               885.9990
 Red. masses --      1.4605                 4.1073                 2.7324
 Frc consts  --      0.5823                 1.8839                 1.2637
 IR Inten    --      7.0856                45.7960                 1.1233

                     55                     56                     57
                      A                      A                      A
 Frequencies --    908.8425               930.8676               946.3057
 Red. masses --      1.3434                 1.3798                 1.4195
 Frc consts  --      0.6538                 0.7045                 0.7489
 IR Inten    --     25.5797                 7.8254                30.0231

                     58                     59                     60
                      A                      A                      A
 Frequencies --    954.2419               980.4564              1016.1557
 Red. masses --      4.1528                 3.1516                 1.6737
 Frc consts  --      2.2280                 1.7850                 1.0182
 IR Inten    --      9.4542                14.1363                 5.8336

                     61                     62                     63
                      A                      A                      A
 Frequencies --   1047.3486              1050.0623              1058.4918
 Red. masses --      6.2677                 1.5548                 1.4450
 Frc consts  --      4.0508                 1.0101                 0.9539
 IR Inten    --     59.4595                22.6472                25.9154

                     64                     65                     66
                      A                      A                      A
 Frequencies --   1083.6452              1105.3018              1109.4796
 Red. masses --      1.1811                 1.7729                 2.3725
 Frc consts  --      0.8171                 1.2762                 1.7207
 IR Inten    --     52.0120                 0.5477                 8.7136

                     67                     68                     69
                      A                      A                      A
 Frequencies --   1119.2128              1132.7998              1159.3630
 Red. masses --      2.3353                 3.4376                 3.4525
 Frc consts  --      1.7235                 2.5990                 2.7341
 IR Inten    --     32.6399               171.7429               210.7480

                     70                     71                     72
                      A                      A                      A
 Frequencies --   1166.2485              1171.6433              1201.9211
 Red. masses --      8.1774                 7.1381                 2.4943
 Frc consts  --      6.5532                 5.7733                 2.1230
 IR Inten    --     49.7255                40.7691               112.9907

                     73                     74                     75
                      A                      A                      A
 Frequencies --   1203.6833              1227.7955              1236.7410
 Red. masses --      6.9366                 6.9127                 1.7533
 Frc consts  --      5.9214                 6.1397                 1.5800
 IR Inten    --    405.6247               143.8950               484.7841

                     76                     77                     78
                      A                      A                      A
 Frequencies --   1286.8831              1288.4729              1306.5233
 Red. masses --      2.8113                 1.1904                 1.4300
 Frc consts  --      2.7431                 1.1643                 1.4382
 IR Inten    --    357.1178                 1.5397                89.2381

                     79                     80                     81
                      A                      A                      A
 Frequencies --   1310.1360              1319.3397              1329.3607
 Red. masses --      2.5914                 2.2755                 1.6133
 Frc consts  --      2.6207                 2.3336                 1.6798
 IR Inten    --    222.4446               162.8611                23.0246

                     82                     83                     84
                      A                      A                      A
 Frequencies --   1330.2126              1342.4339              1361.3624
 Red. masses --      1.3220                 2.9643                 3.9846
 Frc consts  --      1.3783                 3.1474                 4.3510
 IR Inten    --     57.4469               477.9869               392.8521

                     85                     86                     87
                      A                      A                      A
 Frequencies --   1392.3104              1398.9567              1412.3799
 Red. masses --      1.3812                 3.5999                 1.4655
 Frc consts  --      1.5775                 4.1510                 1.7225
 IR Inten    --     20.3162               363.0860                62.8966

                     88                     89                     90
                      A                      A                      A
 Frequencies --   1425.7579              1438.4637              1446.2970
 Red. masses --      1.3693                 1.3445                 3.7255
 Frc consts  --      1.6400                 1.6391                 4.5914
 IR Inten    --      2.4316                34.0406               329.3697

                     91                     92                     93
                      A                      A                      A
 Frequencies --   1482.9070              1485.7671              1494.5776
 Red. masses --      3.9535                 1.1364                 1.0835
 Frc consts  --      5.1223                 1.4780                 1.4260
 IR Inten    --    144.0548                 5.4247                 2.0902

                     94                     95                     96
                      A                      A                      A
 Frequencies --   1507.1997              1511.4198              1519.6274
 Red. masses --      1.0374                 1.0655                 1.0696
 Frc consts  --      1.3884                 1.4341                 1.4552
 IR Inten    --      6.0618                 4.1174                41.6751

                     97                     98                     99
                      A                      A                      A
 Frequencies --   1522.0734              1533.5889              1576.3380
 Red. masses --      1.0797                 1.0458                 2.8835
 Frc consts  --      1.4737                 1.4491                 4.2215
 IR Inten    --     31.6653                12.0959                 2.1902

                    100                    101                    102
                      A                      A                      A
 Frequencies --   1633.4081              1661.9885              1694.9395
 Red. masses --      4.7181                 6.9686                 6.4417
 Frc consts  --      7.4167                11.3409                10.9033
 IR Inten    --     78.6218                78.9852              1040.9829

                    103                    104                    105
                      A                      A                      A
 Frequencies --   1705.0161              1803.4753              2731.1106
 Red. masses --      1.7855                 7.9819                 1.1177
 Frc consts  --      3.0582                15.2959                 4.9118
 IR Inten    --    164.4029               255.5866              2316.5414

                    106                    107                    108
                      A                      A                      A
 Frequencies --   3054.1101              3058.4032              3067.2724
 Red. masses --      1.0445                 1.0633                 1.0599
 Frc consts  --      5.7403                 5.8599                 5.8751
 IR Inten    --     66.3276                38.6935                26.6702

                    109                    110                    111
                      A                      A                      A
 Frequencies --   3068.7116              3095.9105              3098.0241
 Red. masses --      1.0361                 1.0670                 1.1008
 Frc consts  --      5.7484                 6.0254                 6.2248
 IR Inten    --     21.4983                41.2942                15.2856

                    112                    113                    114
                      A                      A                      A
 Frequencies --   3105.1255              3123.5629              3125.8937
 Red. masses --      1.0921                 1.0990                 1.0947
 Frc consts  --      6.2042                 6.3173                 6.3025
 IR Inten    --     38.6285               331.9193                30.3543

                    115                    116                    117
                      A                      A                      A
 Frequencies --   3138.4348              3144.6482              3148.0671
 Red. masses --      1.1023                 1.1041                 1.1020
 Frc consts  --      6.3970                 6.4326                 6.4347
 IR Inten    --     43.5266                16.0492                37.4644

                    118                    119                    120
                      A                      A                      A
 Frequencies --   3151.3202              3241.3314              3293.5285
 Red. masses --      1.1067                 1.0914                 1.0905
 Frc consts  --      6.4751                 6.7558                 6.9697
 IR Inten    --     27.6198                 1.0369                12.4191

 - Thermochemistry -
 -------------------
 Temperature   298.150 Kelvin.  Pressure   1.00000 Atm.
 Atom     1 has atomic number  6 and mass  12.00000

 Molecular mass:   388.09835 amu.
 Principal axes and moments of inertia in atomic units:
                           1         2         3
     Eigenvalues --  6984.27154********************
           X            0.99997  -0.00156   0.00691
           Y            0.00161   0.99997  -0.00749
           Z           -0.00690   0.00750   0.99995
 This molecule is an asymmetric top.
 Rotational symmetry number  1.
 Warning -- assumption of classical behavior for rotation
           may cause significant error
 Rotational temperatures (Kelvin)      0.01240     0.00512     0.00384
 Rotational constants (GHZ):           0.25840     0.10660     0.08006
 Zero-point vibrational energy     810997.3 (Joules/Mol)
                                  193.83300 (Kcal/Mol)
 Warning -- explicit consideration of  41 degrees of freedom as
           vibrations may cause significant error
 Vibrational temperatures:     13.37    20.83    34.43    39.31    45.61
          (Kelvin)             52.64    74.87    82.21   105.52   115.87
                              122.45   132.58   136.81   168.24   188.33
                              195.31   221.93   249.87   305.42   312.54
                              326.35   356.60   384.07   397.81   435.34
                              463.82   472.50   494.60   537.27   582.25
                              606.65   641.77   679.65   694.03   732.64
                              743.14   783.70   824.35   840.65   880.39
                              891.28   945.02   954.19   961.27   979.18
                             1075.90  1091.02  1109.34  1123.19  1142.61
                             1157.92  1183.55  1269.47  1274.75  1307.62
                             1339.31  1361.52  1372.94  1410.66  1462.02
                             1506.90  1510.81  1522.93  1559.12  1590.28
                             1596.29  1610.30  1629.85  1668.06  1677.97
                             1685.73  1729.30  1731.83  1766.52  1779.39
                             1851.54  1853.83  1879.80  1884.99  1898.24
                             1912.65  1913.88  1931.46  1958.70  2003.22
                             2012.79  2032.10  2051.35  2069.63  2080.90
                             2133.57  2137.69  2150.36  2168.52  2174.60
                             2186.40  2189.92  2206.49  2268.00  2350.11
                             2391.23  2438.64  2453.14  2594.80  3929.46
                             4394.18  4400.36  4413.12  4415.19  4454.32
                             4457.37  4467.58  4494.11  4497.46  4515.51
                             4524.45  4529.37  4534.05  4663.55  4738.65

 Zero-point correction=                           0.308893 (Hartree/Particle)
 Thermal correction to Energy=                    0.335329
 Thermal correction to Enthalpy=                  0.336273
 Thermal correction to Gibbs Free Energy=         0.245540
 Sum of electronic and zero-point Energies=          -1535.672874
 Sum of electronic and thermal Energies=             -1535.646438
 Sum of electronic and thermal Enthalpies=           -1535.645494
 Sum of electronic and thermal Free Energies=        -1535.736227

                     E (Thermal)             CV                S
                      KCal/Mol        Cal/Mol-Kelvin    Cal/Mol-Kelvin
 Total                  210.422             92.881            190.964
 Electronic               0.000              0.000              0.000
 Translational            0.889              2.981             43.760
 Rotational               0.889              2.981             36.231
 Vibrational            208.644             86.919            110.972
 Vibration     1          0.593              1.987              8.156
 Vibration     2          0.593              1.986              7.276
 Vibration     3          0.593              1.985              6.278
 Vibration     4          0.593              1.984              6.015
 Vibration     5          0.594              1.983              5.720
 Vibration     6          0.594              1.982              5.436
 Vibration     7          0.596              1.977              4.738
 Vibration     8          0.596              1.975              4.554
 Vibration     9          0.599              1.967              4.062
 Vibration    10          0.600              1.962              3.878
 Vibration    11          0.601              1.960              3.769
 Vibration    12          0.602              1.955              3.614
 Vibration    13          0.603              1.953              3.553
 Vibration    14          0.608              1.935              3.150
 Vibration    15          0.612              1.922              2.933
 Vibration    16          0.614              1.918              2.863
 Vibration    17          0.620              1.898              2.619
 Vibration    18          0.627              1.875              2.395
 Vibration    19          0.643              1.822              2.024
 Vibration    20          0.646              1.815              1.982
 Vibration    21          0.650              1.800              1.904
 Vibration    22          0.661              1.766              1.746
 Vibration    23          0.672              1.734              1.616
 Vibration    24          0.678              1.717              1.555
 Vibration    25          0.694              1.669              1.403
 Vibration    26          0.707              1.631              1.298
 Vibration    27          0.712              1.619              1.268
 Vibration    28          0.723              1.588              1.195
 Vibration    29          0.745              1.527              1.066
 Vibration    30          0.770              1.460              0.946
 Vibration    31          0.784              1.423              0.886
 Vibration    32          0.805              1.370              0.808
 Vibration    33          0.829              1.311              0.731
 Vibration    34          0.839              1.289              0.704
 Vibration    35          0.864              1.230              0.635
 Vibration    36          0.872              1.213              0.618
 Vibration    37          0.900              1.151              0.555
 Vibration    38          0.929              1.090              0.499
 Vibration    39          0.941              1.065              0.477
 Vibration    40          0.971              1.007              0.430
 Vibration    41          0.979              0.991              0.417

 Optimization completed.
    -- Stationary point found.
 Normal termination of Gaussian 16 at Wed Apr 14 01:14:44 2021.
