 Gaussian 16, Revision C.01,
 Gaussian 16:  ES64L-G16RevC.01  3-Jul-2019

 ----------------------------------------------------------------------
 # DSDPBEP86/AUG-cc-PVTZ SCF=Tight INT(grid=ultrafine) MaxDisk=1400000M
 B
 ----------------------------------------------------------------------

 -----------------------------------
 NM2CA_carboxy.DSDPBEP86_AUG-cc-PVTZ
 -----------------------------------
 Symbolic Z-matrix:
 Charge = -1 Multiplicity = 1

                         Standard orientation:
 ---------------------------------------------------------------------
 Center     Atomic      Atomic             Coordinates (Angstroms)
 Number     Number       Type             X           Y           Z
 ---------------------------------------------------------------------
      1          6           0        0.080098   -0.023323   -0.308724
      2          7           0        1.410286   -0.382860   -0.478313
      3          6           0        1.881236   -1.650366   -0.599101
      4          8           0        1.244620   -2.683199   -0.554961
      5          8           0        3.218897   -1.606857   -0.790411
      6          6           0        3.932582   -2.836928   -0.728729
      7          6           0       -0.986845   -0.935155   -0.268216
      8          6           0       -2.290093   -0.486030   -0.097336
      9          6           0       -2.563603    0.880847    0.051155
     10          6           0       -1.494843    1.774886   -0.003123
     11          6           0       -0.192320    1.345225   -0.180679
     12          1           0        2.125594    0.396867   -0.425290
     13          1           0        4.676606   -2.786353   -1.525672
     14          1           0        3.249707   -3.664759   -0.926948
     15          1           0       -0.789637   -1.990080   -0.374050
     16          1           0        0.620198    2.072308   -0.223959
     17          6           0       -3.945397    1.444108    0.221947
     18          6           0       -3.367503   -1.540333   -0.037320
     19          1           0       -1.680547    2.836531    0.100827
     20          9           0       -4.701262    0.739218    1.080058
     21          9           0       -4.633347    1.508790   -0.934514
     22          9           0       -3.911400    2.702090    0.698493
     23          9           0       -2.960393   -2.708430   -0.557663
     24          9           0       -4.472158   -1.191299   -0.716425
     25          9           0       -3.752551   -1.807621    1.223649
     26          8           0        3.257690    1.532401   -0.175741
     27          6           0        3.166633    2.791368   -0.136259
     28          8           0        2.138038    3.474215   -0.282516
     29          6           0        4.477475    3.563050    0.115217
     30          6           0        5.691923    2.682237    0.376764
     31          1           0        4.294148    4.245253    0.951080
     32          1           0        4.639357    4.204387   -0.757606
     33          1           0        5.532197    2.055157    1.255945
     34          1           0        6.594787    3.280891    0.536698
     35          1           0        5.864552    2.006373   -0.462159
     36          6           0        4.600859   -2.983498    0.630415
     37          1           0        5.305569   -2.157561    0.764119
     38          1           0        5.185443   -3.910597    0.621074
     39          6           0        3.594650   -2.998709    1.778095
     40          1           0        3.060195   -2.047921    1.835937
     41          1           0        2.851793   -3.788374    1.643575
     42          1           0        4.094967   -3.153590    2.736629
 ---------------------------------------------------------------------

 SCF Done:  E(RDSDPBEP86) =  -1531.73010483     A.U. after   14 cycles
 E2(DSDPBEP86) =    -0.2573583544D+01 E(DSDPBEP86) =    -0.15343036883716D+04

 The electronic state is 1-A.
 Alpha  occ. eigenvalues --  -25.62040 -25.62004 -25.61932 -25.61799 -25.61662
 Alpha  occ. eigenvalues --  -25.61466 -19.94324 -19.87875 -19.80899 -19.80061
 Alpha  occ. eigenvalues --  -14.99556 -10.99684 -10.99583 -10.87920 -10.78286
 Alpha  occ. eigenvalues --  -10.78010 -10.77468 -10.76808 -10.75815 -10.74145
 Alpha  occ. eigenvalues --  -10.73431 -10.73209 -10.71843 -10.71766 -10.68798
 Alpha  occ. eigenvalues --  -10.68650  -1.48729  -1.48236  -1.39301  -1.38964
 Alpha  occ. eigenvalues --   -1.38828  -1.38596  -1.23388  -1.13218  -1.11068
 Alpha  occ. eigenvalues --   -1.03818  -1.01134  -0.97027  -0.88087  -0.86706
 Alpha  occ. eigenvalues --   -0.85819  -0.81209  -0.79034  -0.77658  -0.75639
 Alpha  occ. eigenvalues --   -0.70107  -0.69399  -0.66241  -0.66079  -0.64878
 Alpha  occ. eigenvalues --   -0.64723  -0.64567  -0.64089  -0.63399  -0.60773
 Alpha  occ. eigenvalues --   -0.58783  -0.57371  -0.53634  -0.53455  -0.53105
 Alpha  occ. eigenvalues --   -0.52768  -0.52636  -0.51933  -0.50205  -0.50014
 Alpha  occ. eigenvalues --   -0.49412  -0.48968  -0.48079  -0.47895  -0.46988
 Alpha  occ. eigenvalues --   -0.46745  -0.46566  -0.45998  -0.45608  -0.44793
 Alpha  occ. eigenvalues --   -0.43937  -0.43879  -0.43322  -0.43172  -0.42453
 Alpha  occ. eigenvalues --   -0.39611  -0.39309  -0.38564  -0.37566  -0.37228
 Alpha  occ. eigenvalues --   -0.36309  -0.35819  -0.35730  -0.35324  -0.33696
 Alpha  occ. eigenvalues --   -0.33024  -0.31159  -0.30587  -0.29708  -0.29102
 Alpha  occ. eigenvalues --   -0.23349  -0.21467  -0.21028  -0.19954  -0.18751
 Alpha virt. eigenvalues --    0.08003   0.09092   0.09259   0.10162   0.10597
 Alpha virt. eigenvalues --    0.10751   0.11182   0.11307   0.12039   0.12124
 Alpha virt. eigenvalues --    0.12401   0.13140   0.13309   0.13326   0.13727

 Mulliken charges:
               1
     1  C    1.003327
     2  N   -0.386833
     3  C    0.412501
     4  O   -0.906557
     5  O   -0.422921
     6  C   -0.406688
     7  C   -1.182465
     8  C    0.742618
     9  C    0.145943
    10  C   -0.797760
    11  C   -0.938369
    12  H    0.668176
    13  H    0.274797
    14  H    0.402209
    15  H    0.405964
    16  H    0.988024
    17  C    1.243310
    18  C    1.194137
    19  H    0.281866
    20  F   -0.448136
    21  F   -0.421017
    22  F   -0.386801
    23  F   -0.380229
    24  F   -0.448754
    25  F   -0.423937
    26  O   -0.661459
    27  C    0.467181
    28  O   -1.011388
    29  C   -0.229708
    30  C   -0.926367
    31  H    0.220216
    32  H    0.208321
    33  H    0.259195
    34  H    0.276590
    35  H    0.282073
    36  C   -0.422621
    37  H    0.233132
    38  H    0.245602
    39  C   -1.057269
    40  H    0.412121
    41  H    0.267562
    42  H    0.224415
 Sum of Mulliken charges =  -1.00000

 Dipole moment (field-independent basis, Debye):
    X=             -1.3175    Y=             -5.3154    Z=              0.8315  Tot=              5.5390
 Quadrupole moment (field-independent basis, Debye-Ang):
   XX=           -206.7302   YY=           -189.3971   ZZ=           -155.2768
   XY=            -20.7488   XZ=              1.8991   YZ=              1.5008

 Normal termination of Gaussian 16 at Wed Apr 14 17:25:03 2021.
