 Gaussian 16, Revision C.01,
 Gaussian 16:  ES64L-G16RevC.01  3-Jul-2019

 ----------------------------------------------------------------------
 # DSDPBEP86/AUG-cc-PVTZ SCF=Tight INT(grid=ultrafine) MaxDisk=1400000M
 B
 ----------------------------------------------------------------------

 --------------------------------------
 NM2CA_carboxy_c2.DSDPBEP86_AUG-cc-PVTZ
 --------------------------------------
 Symbolic Z-matrix:
 Charge = -1 Multiplicity = 1

                         Standard orientation:
 ---------------------------------------------------------------------
 Center     Atomic      Atomic             Coordinates (Angstroms)
 Number     Number       Type             X           Y           Z
 ---------------------------------------------------------------------
      1          6           0       -0.009388   -0.908129    0.011440
      2          7           0       -1.381088   -0.712294   -0.007017
      3          6           0       -2.308779   -1.699230   -0.078656
      4          8           0       -2.123865   -2.897568   -0.161427
      5          8           0       -3.545732   -1.157415   -0.052582
      6          6           0       -4.624376   -2.078720   -0.114891
      7          6           0       -5.906310   -1.271376   -0.072206
      8          6           0       -7.133892   -2.175908   -0.128143
      9          6           0        0.792904    0.246464   -0.090204
     10          6           0        2.171224    0.156098   -0.043893
     11          6           0        2.803562   -1.096069    0.083150
     12          6           0        2.002367   -2.226564    0.171596
     13          6           0        0.616042   -2.152511    0.137476
     14          1           0       -1.738629    0.290975    0.119394
     15          1           0       -4.562480   -2.775835    0.726924
     16          1           0       -4.552699   -2.668739   -1.034083
     17          1           0       -5.906545   -0.568947   -0.909745
     18          1           0       -5.910939   -0.668833    0.839758
     19          1           0       -7.146981   -2.770567   -1.045813
     20          1           0       -8.056972   -1.593817   -0.097652
     21          1           0       -7.152589   -2.871394    0.715574
     22          1           0        0.304755    1.208247   -0.245696
     23          1           0        0.023259   -3.051477    0.204663
     24          6           0        4.290854   -1.282629    0.172822
     25          6           0        2.947882    1.444060   -0.180419
     26          1           0        2.469060   -3.198765    0.269089
     27          9           0        4.975764   -0.539603   -0.708570
     28          9           0        4.643500   -2.563456   -0.064833
     29          9           0        4.784796   -0.992335    1.391939
     30          9           0        2.194223    2.515166    0.061385
     31          9           0        3.460370    1.598609   -1.414223
     32          9           0        3.985371    1.501439    0.678178
     33          8           0       -0.955875    2.715834   -1.023559
     34          8           0       -2.267777    1.727224    0.497043
     35          6           0       -1.876881    2.714867   -0.191504
     36          6           0       -2.609425    4.048025    0.046420
     37          6           0       -3.845266    3.941970    0.930168
     38          1           0       -2.854779    4.461407   -0.936244
     39          1           0       -1.877117    4.736287    0.482109
     40          1           0       -4.577743    3.261683    0.490674
     41          1           0       -4.320957    4.917792    1.073453
     42          1           0       -3.584368    3.532992    1.907105
 ---------------------------------------------------------------------

 SCF Done:  E(RDSDPBEP86) =  -1531.72869663     A.U. after   14 cycles
 E2(DSDPBEP86) =    -0.2572638911D+01 E(DSDPBEP86) =    -0.15343013355365D+04

 The electronic state is 1-A.
 Alpha  occ. eigenvalues --  -25.61956 -25.61594 -25.61306 -25.60657 -25.60345
 Alpha  occ. eigenvalues --  -25.60334 -19.94270 -19.87615 -19.80825 -19.79851
 Alpha  occ. eigenvalues --  -14.98952 -10.99451 -10.98362 -10.87477 -10.78139
 Alpha  occ. eigenvalues --  -10.78138 -10.77243 -10.76163 -10.75582 -10.74578
 Alpha  occ. eigenvalues --  -10.73820 -10.73378 -10.72625 -10.72496 -10.68665
 Alpha  occ. eigenvalues --  -10.68488  -1.48284  -1.47158  -1.38915  -1.38507
 Alpha  occ. eigenvalues --   -1.37702  -1.37511  -1.23328  -1.12853  -1.11057
 Alpha  occ. eigenvalues --   -1.03451  -1.00949  -0.96687  -0.88800  -0.86380
 Alpha  occ. eigenvalues --   -0.85820  -0.81098  -0.79108  -0.76893  -0.75476
 Alpha  occ. eigenvalues --   -0.69812  -0.68465  -0.66133  -0.65735  -0.64444
 Alpha  occ. eigenvalues --   -0.64341  -0.63818  -0.63203  -0.62976  -0.61951
 Alpha  occ. eigenvalues --   -0.57911  -0.56739  -0.53166  -0.52985  -0.52880
 Alpha  occ. eigenvalues --   -0.52384  -0.51709  -0.51625  -0.50075  -0.49994
 Alpha  occ. eigenvalues --   -0.48629  -0.48396  -0.47302  -0.47251  -0.47170
 Alpha  occ. eigenvalues --   -0.46749  -0.46371  -0.46007  -0.45283  -0.44649
 Alpha  occ. eigenvalues --   -0.43963  -0.43451  -0.43195  -0.42033  -0.41674
 Alpha  occ. eigenvalues --   -0.40066  -0.39102  -0.38650  -0.38258  -0.37843
 Alpha  occ. eigenvalues --   -0.36125  -0.35827  -0.35266  -0.35052  -0.34735
 Alpha  occ. eigenvalues --   -0.32911  -0.30730  -0.30470  -0.30014  -0.28819
 Alpha  occ. eigenvalues --   -0.23311  -0.21361  -0.20827  -0.19821  -0.18497
 Alpha virt. eigenvalues --    0.07364   0.08987   0.09323   0.09429   0.09717
 Alpha virt. eigenvalues --    0.10758   0.11319   0.11634   0.11746   0.12199
 Alpha virt. eigenvalues --    0.12466   0.12954   0.13143   0.13518   0.13602

 Mulliken charges:
               1
     1  C    1.125229
     2  N   -0.234742
     3  C    0.163935
     4  O   -0.925182
     5  O   -0.271940
     6  C   -0.355144
     7  C   -0.483698
     8  C   -0.982325
     9  C   -1.421547
    10  C    0.480989
    11  C    0.140387
    12  C   -0.716336
    13  C   -0.647478
    14  H    0.762098
    15  H    0.322894
    16  H    0.338615
    17  H    0.218199
    18  H    0.229775
    19  H    0.275196
    20  H    0.279619
    21  H    0.275761
    22  H    0.751567
    23  H    0.408219
    24  C    1.249583
    25  C    1.234317
    26  H    0.375334
    27  F   -0.436532
    28  F   -0.400631
    29  F   -0.418717
    30  F   -0.342220
    31  F   -0.427526
    32  F   -0.468402
    33  O   -0.978632
    34  O   -0.803436
    35  C    0.555481
    36  C   -0.182917
    37  C   -0.964639
    38  H    0.240441
    39  H    0.184800
    40  H    0.323236
    41  H    0.259088
    42  H    0.267278
 Sum of Mulliken charges =  -1.00000

 Dipole moment (field-independent basis, Debye):
    X=             -1.1181    Y=             -4.7454    Z=              1.2116  Tot=              5.0236
 Quadrupole moment (field-independent basis, Debye-Ang):
   XX=           -193.1560   YY=           -183.9185   ZZ=           -158.6555
   XY=              6.7430   XZ=              1.7855   YZ=              3.3131

 Normal termination of Gaussian 16 at Thu Apr  1 08:24:38 2021.
