 Gaussian 16, Revision C.01,

 ----------------------------------------------------------------------
 # M062X/6-311+G* SCF=Tight INT(grid=ultrafine) OPT=CalcFC IOP(2/17=4)
 EmpiricalDispersion=GD3 SCRF=(SMD,Solvent=h2o) MaxDisk=10000MB
 ----------------------------------------------------------------------

 ------------------------------------------
 NM2CA_carboxy.M062X_6-311pGd_opt_water_GD3
 ------------------------------------------
 Symbolic Z-matrix:
 Charge = -1 Multiplicity = 1

 SCF Done:  E(RM062X) =  -1535.99710009     A.U. after   16 cycles
 SCF Done:  E(RM062X) =  -1536.02031360     A.U. after   13 cycles
 SCF Done:  E(RM062X) =  -1536.04786223     A.U. after   14 cycles
 SCF Done:  E(RM062X) =  -1536.05170506     A.U. after   13 cycles
 SCF Done:  E(RM062X) =  -1536.04521558     A.U. after   14 cycles
 SCF Done:  E(RM062X) =  -1536.05336658     A.U. after   14 cycles
 SCF Done:  E(RM062X) =  -1536.05323875     A.U. after   14 cycles
 SCF Done:  E(RM062X) =  -1536.05420988     A.U. after   14 cycles
 SCF Done:  E(RM062X) =  -1536.05294892     A.U. after   14 cycles
 SCF Done:  E(RM062X) =  -1536.05460148     A.U. after   14 cycles
 SCF Done:  E(RM062X) =  -1536.05895736     A.U. after   11 cycles
 SCF Done:  E(RM062X) =  -1536.05896093     A.U. after   12 cycles
 SCF Done:  E(RM062X) =  -1536.05895824     A.U. after   12 cycles
 SCF Done:  E(RM062X) =  -1536.05896073     A.U. after   11 cycles
 SCF Done:  E(RM062X) =  -1536.05896149     A.U. after   11 cycles
 SCF Done:  E(RM062X) =  -1536.05896148     A.U. after   10 cycles
 SCF Done:  E(RM062X) =  -1536.05896146     A.U. after   10 cycles
 SCF Done:  E(RM062X) =  -1536.05896150     A.U. after    9 cycles
 SCF Done:  E(RM062X) =  -1536.05896154     A.U. after    8 cycles
 Optimization completed.
    -- Stationary point found.
 Normal termination of Gaussian 16 at Mon Mar 22 15:37:37 2021.
 Gaussian 16:  ES64L-G16RevC.01  3-Jul-2019

 ----------------------------------------------------------------------
 # M062X/6-311+G* SCF=Tight INT(grid=ultrafine) EmpiricalDispersion=GD3
  SCRF=(SMD,Solvent=h2o) Freq=Noraman MaxDisk=10000MB geom=check guess=
 read IOP(2/17=4)
 ----------------------------------------------------------------------

 ------------------------------------------
 NM2CA_carboxy.M062X_6-311pGd_opt_water_GD3
 ------------------------------------------
 Structure from the checkpoint file:  "NM2CA_carboxy.M062X_6-311pGd_opt_water_GD3.chk"
 Charge = -1 Multiplicity = 1

                         Standard orientation:
 ---------------------------------------------------------------------
 Center     Atomic      Atomic             Coordinates (Angstroms)
 Number     Number       Type             X           Y           Z
 ---------------------------------------------------------------------
      1          6           0       -0.014990    0.045873    0.571873
      2          7           0       -1.370787   -0.174904    0.830112
      3          6           0       -2.098086   -1.184126    0.261035
      4          8           0       -1.660264   -2.094887   -0.414685
      5          8           0       -3.390906   -1.030227    0.561112
      6          6           0       -4.310475   -1.929723   -0.091291
      7          6           0       -5.709998   -1.492515    0.277029
      8          6           0       -6.743794   -2.399477   -0.380994
      9          6           0        0.891764   -1.002475    0.386253
     10          6           0        2.231498   -0.734086    0.149717
     11          6           0        2.698983    0.588211    0.119306
     12          6           0        1.791072    1.622253    0.320476
     13          6           0        0.449141    1.360289    0.543526
     14          1           0       -1.926714    0.661985    1.045414
     15          1           0       -4.103666   -2.947904    0.245154
     16          1           0       -4.145683   -1.873870   -1.169789
     17          1           0       -5.854055   -0.456261   -0.042173
     18          1           0       -5.819609   -1.517735    1.364633
     19          1           0       -6.654258   -2.373471   -1.469963
     20          1           0       -7.756826   -2.088040   -0.121268
     21          1           0       -6.619699   -3.436477   -0.058843
     22          1           0        0.549325   -2.024909    0.438997
     23          1           0       -0.240434    2.182370    0.700082
     24          6           0        4.131743    0.957611   -0.153188
     25          6           0        3.143667   -1.925355   -0.019043
     26          1           0        2.129051    2.650161    0.298765
     27          9           0        5.006054    0.175892    0.501115
     28          9           0        4.397567    2.217440    0.219568
     29          9           0        4.445570    0.879216   -1.459706
     30          9           0        2.461757   -3.040903   -0.307749
     31          9           0        3.845532   -2.189412    1.096477
     32          9           0        4.033021   -1.755559   -1.009249
     33          8           0       -2.329357    4.270742    0.672409
     34          8           0       -2.981069    2.170980    1.031690
     35          6           0       -2.694273    3.137215    0.268073
     36          6           0       -2.828535    2.944999   -1.242234
     37          6           0       -2.732791    1.507047   -1.736061
     38          1           0       -2.080168    3.573947   -1.729336
     39          1           0       -3.802592    3.369032   -1.512879
     40          1           0       -1.746681    1.080780   -1.532230
     41          1           0       -2.889895    1.467732   -2.816251
     42          1           0       -3.484896    0.869605   -1.266268
 ---------------------------------------------------------------------

 SCF Done:  E(RM062X) =  -1536.05896154     A.U. after    2 cycles

 The electronic state is 1-A.
 Alpha  occ. eigenvalues --  -25.28820 -25.28763 -25.28669 -25.28596 -25.28461
 Alpha  occ. eigenvalues --  -25.28267 -19.67320 -19.61892 -19.57523 -19.57269
 Alpha  occ. eigenvalues --  -14.78590 -10.81603 -10.81437 -10.71206 -10.63593
 Alpha  occ. eigenvalues --  -10.61491 -10.59739 -10.58988 -10.58848 -10.57096
 Alpha  occ. eigenvalues --  -10.56926 -10.56313 -10.52933 -10.52425 -10.51801
 Alpha  occ. eigenvalues --  -10.51493  -1.48381  -1.47873  -1.38939  -1.38564
 Alpha  occ. eigenvalues --   -1.38442  -1.38201  -1.25387  -1.16227  -1.15463
 Alpha  occ. eigenvalues --   -1.07204  -1.06241  -1.00002  -0.91072  -0.90240
 Alpha  occ. eigenvalues --   -0.88594  -0.85608  -0.83352  -0.81844  -0.79089
 Alpha  occ. eigenvalues --   -0.75013  -0.74514  -0.72065  -0.71135  -0.70716
 Alpha  occ. eigenvalues --   -0.70457  -0.69963  -0.69344  -0.68374  -0.66889
 Alpha  occ. eigenvalues --   -0.65565  -0.63216  -0.60068  -0.59391  -0.59103
 Alpha  occ. eigenvalues --   -0.59077  -0.58597  -0.58345  -0.58193  -0.56727
 Alpha  occ. eigenvalues --   -0.55986  -0.54855  -0.54714  -0.53781  -0.53669
 Alpha  occ. eigenvalues --   -0.53136  -0.52962  -0.52710  -0.52318  -0.52144
 Alpha  occ. eigenvalues --   -0.52086  -0.51241  -0.50405  -0.50253  -0.49332
 Alpha  occ. eigenvalues --   -0.48326  -0.46748  -0.46081  -0.45664  -0.44870
 Alpha  occ. eigenvalues --   -0.44261  -0.43513  -0.42609  -0.41471  -0.40498
 Alpha  occ. eigenvalues --   -0.40007  -0.39611  -0.39128  -0.38024  -0.37788
 Alpha  occ. eigenvalues --   -0.33860  -0.33659  -0.32685  -0.32151  -0.29946
 Alpha virt. eigenvalues --   -0.02148  -0.00484   0.01416   0.02320   0.02540
 Alpha virt. eigenvalues --    0.03085   0.03394   0.03686   0.04294   0.04462
 Alpha virt. eigenvalues --    0.04899   0.05223   0.05581   0.05999   0.06176

 Mulliken charges:
               1
     1  C   -1.151088
     2  N   -0.287374
     3  C   -0.224795
     4  O   -0.379523
     5  O   -0.063722
     6  C   -0.518568
     7  C   -0.134751
     8  C   -1.064800
     9  C    0.353051
    10  C   -0.653012
    11  C   -0.376423
    12  C   -0.472469
    13  C    0.096749
    14  H    0.461224
    15  H    0.297112
    16  H    0.305540
    17  H    0.271085
    18  H    0.272341
    19  H    0.273985
    20  H    0.283635
    21  H    0.273752
    22  H    0.332539
    23  H    0.314141
    24  C    0.936707
    25  C    0.976735
    26  H    0.323166
    27  F   -0.091511
    28  F   -0.120322
    29  F   -0.053495
    30  F   -0.115991
    31  F   -0.039168
    32  F   -0.085802
    33  O   -0.587152
    34  O   -0.588780
    35  C    0.154679
    36  C   -0.560331
    37  C   -0.822714
    38  H    0.294024
    39  H    0.307114
    40  H    0.306101
    41  H    0.278310
    42  H    0.279803
 Sum of Mulliken charges =  -1.00000

 Dipole moment (field-independent basis, Debye):
    X=              3.1502    Y=            -10.3750    Z=             -4.3552  Tot=             11.6847
 Quadrupole moment (field-independent basis, Debye-Ang):
   XX=           -191.2364   YY=           -212.8477   ZZ=           -161.1316
   XY=             42.8033   XZ=             18.5250   YZ=            -19.9008

  Exact polarizability:     315.664      19.499     298.555      -9.597       9.434     216.883
 Approx polarizability:     259.066      10.608     256.349     -10.682       6.752     192.040

                      1                      2                      3
                      A                      A                      A
 Frequencies --     18.8238                23.1346                33.9354
 Red. masses --      8.6206                 4.7868                 5.1314
 Frc consts  --      0.0018                 0.0015                 0.0035
 IR Inten    --      4.0768                 1.1465                 1.9627

                      4                      5                      6
                      A                      A                      A
 Frequencies --     38.1744                44.2484                48.3503
 Red. masses --      4.4850                 6.8852                 4.5732
 Frc consts  --      0.0039                 0.0079                 0.0063
 IR Inten    --      3.9434                23.5099                 2.4106

                      7                      8                      9
                      A                      A                      A
 Frequencies --     55.2025                60.5349                65.5939
 Red. masses --      2.7767                 6.9374                 4.8165
 Frc consts  --      0.0050                 0.0150                 0.0122
 IR Inten    --      3.3664                 0.6913                12.6700

                     10                     11                     12
                      A                      A                      A
 Frequencies --     82.5298                89.1743                94.8679
 Red. masses --      2.9723                 3.2758                18.0992
 Frc consts  --      0.0119                 0.0153                 0.0960
 IR Inten    --      3.2755                 0.9971                 0.0738

                     13                     14                     15
                      A                      A                      A
 Frequencies --    108.7795               118.7012               126.2883
 Red. masses --      4.0237                 5.8617                 6.0349
 Frc consts  --      0.0281                 0.0487                 0.0567
 IR Inten    --      4.3400                 4.7787                 5.8995

                     16                     17                     18
                      A                      A                      A
 Frequencies --    146.3308               156.0104               173.0702
 Red. masses --      8.9681                 6.9820                14.0691
 Frc consts  --      0.1131                 0.1001                 0.2483
 IR Inten    --     27.6819                 4.2448                 2.2252

                     19                     20                     21
                      A                      A                      A
 Frequencies --    187.2743               211.2011               232.3849
 Red. masses --      3.5615                 7.8371                 6.9342
 Frc consts  --      0.0736                 0.2060                 0.2206
 IR Inten    --      8.3584                 0.1940                 7.8843

                     22                     23                     24
                      A                      A                      A
 Frequencies --    239.2970               254.9448               268.0484
 Red. masses --      1.1718                 5.6195                 5.6773
 Frc consts  --      0.0395                 0.2152                 0.2403
 IR Inten    --      0.2809                 2.0420                 5.9714

                     25                     26                     27
                      A                      A                      A
 Frequencies --    286.7806               298.3280               325.7191
 Red. masses --      1.7887                 1.8258                 6.7809
 Frc consts  --      0.0867                 0.0957                 0.4239
 IR Inten    --     10.0149                 2.8682                 1.4785

                     28                     29                     30
                      A                      A                      A
 Frequencies --    340.7057               356.0438               395.7561
 Red. masses --     12.3119                 5.1409                 6.8588
 Frc consts  --      0.8420                 0.3840                 0.6329
 IR Inten    --      3.0830                25.4122                14.4041

                     31                     32                     33
                      A                      A                      A
 Frequencies --    399.6976               423.2603               469.5238
 Red. masses --      6.8778                 5.1757                 6.9762
 Frc consts  --      0.6474                 0.5463                 0.9061
 IR Inten    --     29.8288                 3.9272                 8.3370

                     34                     35                     36
                      A                      A                      A
 Frequencies --    482.1058               489.5950               506.3813
 Red. masses --      6.5813                 3.7520                 6.4539
 Frc consts  --      0.9013                 0.5299                 0.9750
 IR Inten    --      3.4156                15.8524                27.5030

                     37                     38                     39
                      A                      A                      A
 Frequencies --    540.6722               572.9405               592.9768
 Red. masses --     11.5121                14.9034                 2.9295
 Frc consts  --      1.9828                 2.8824                 0.6069
 IR Inten    --      6.7952                 1.7826                26.1581

                     40                     41                     42
                      A                      A                      A
 Frequencies --    606.8471               621.0046               653.7284
 Red. masses --      5.4787                 8.4684                 5.9977
 Frc consts  --      1.1887                 1.9242                 1.5102
 IR Inten    --     28.9031                 3.2798                18.9343

                     43                     44                     45
                      A                      A                      A
 Frequencies --    662.7026               675.6900               682.7029
 Red. masses --      7.1369                 2.9866                 6.5045
 Frc consts  --      1.8467                 0.8034                 1.7862
 IR Inten    --     18.4966                13.7764                24.0487

                     46                     47                     48
                      A                      A                      A
 Frequencies --    719.3671               764.3345               765.3987
 Red. masses --      1.9031                 3.5862                 1.2354
 Frc consts  --      0.5803                 1.2344                 0.4264
 IR Inten    --    112.4082                 9.5114                21.4658

                     49                     50                     51
                      A                      A                      A
 Frequencies --    771.7812               777.1740               791.8402
 Red. masses --      5.7618                 8.7739                 8.3921
 Frc consts  --      2.0221                 3.1223                 3.1002
 IR Inten    --     18.8876                17.3267                36.6818

                     52                     53                     54
                      A                      A                      A
 Frequencies --    820.7539               835.0965               870.0830
 Red. masses --      1.5800                 2.7562                 1.4766
 Frc consts  --      0.6271                 1.1325                 0.6586
 IR Inten    --     40.6006               149.8501                96.4128

                     55                     56                     57
                      A                      A                      A
 Frequencies --    882.0487               906.2431               922.7701
 Red. masses --      3.9502                 1.1473                 1.5392
 Frc consts  --      1.8107                 0.5552                 0.7722
 IR Inten    --     39.6538                 5.2716                52.7233

                     58                     59                     60
                      A                      A                      A
 Frequencies --    929.7729               959.7954              1005.2493
 Red. masses --      1.6514                 5.0709                 1.3550
 Frc consts  --      0.8411                 2.7523                 0.8068
 IR Inten    --     14.1927                60.6690                 5.0104

                     61                     62                     63
                      A                      A                      A
 Frequencies --   1020.5604              1027.8112              1048.3648
 Red. masses --      6.3202                 1.7171                 6.5724
 Frc consts  --      3.8784                 1.0687                 4.2560
 IR Inten    --     12.7285                15.4796               112.1975

                     64                     65                     66
                      A                      A                      A
 Frequencies --   1075.2951              1102.2971              1111.5492
 Red. masses --      2.4110                 2.1615                 1.8938
 Frc consts  --      1.6425                 1.5474                 1.3786
 IR Inten    --      4.4435                28.6869                 2.5370

                     67                     68                     69
                      A                      A                      A
 Frequencies --   1114.1885              1128.3716              1144.1159
 Red. masses --      7.3465                 3.3690                10.4752
 Frc consts  --      5.3734                 2.5273                 8.0789
 IR Inten    --    165.3572               352.5863                85.0513

                     70                     71                     72
                      A                      A                      A
 Frequencies --   1154.6601              1159.8003              1165.0193
 Red. masses --      7.9349                 5.2661                 2.5033
 Frc consts  --      6.2330                 4.1735                 2.0018
 IR Inten    --    619.8134               434.1912                22.5994

                     73                     74                     75
                      A                      A                      A
 Frequencies --   1190.9629              1198.7309              1208.1553
 Red. masses --      1.6573                 9.4780                 1.5971
 Frc consts  --      1.3850                 8.0244                 1.3735
 IR Inten    --      1.5995               361.7712               486.1850

                     76                     77                     78
                      A                      A                      A
 Frequencies --   1270.6532              1287.2728              1290.6633
 Red. masses --      3.3105                 1.1906                 1.1867
 Frc consts  --      3.1492                 1.1624                 1.1647
 IR Inten    --   1222.8052                16.2428                 6.0810

                     79                     80                     81
                      A                      A                      A
 Frequencies --   1295.0909              1316.3899              1327.0574
 Red. masses --      2.8471                 2.4731                 2.3952
 Frc consts  --      2.8136                 2.5250                 2.4853
 IR Inten    --    228.9783               258.4494               268.7286

                     82                     83                     84
                      A                      A                      A
 Frequencies --   1334.0338              1335.1002              1345.6738
 Red. masses --      1.6997                 1.0871                 1.6828
 Frc consts  --      1.7822                 1.1416                 1.7955
 IR Inten    --     80.9874                33.9332               292.4332

                     85                     86                     87
                      A                      A                      A
 Frequencies --   1349.5408              1370.2710              1409.0625
 Red. masses --      3.2814                 4.1305                 1.3837
 Frc consts  --      3.5211                 4.5694                 1.6186
 IR Inten    --    209.5181               310.7870                52.4169

                     88                     89                     90
                      A                      A                      A
 Frequencies --   1417.5524              1440.4282              1444.1617
 Red. masses --      1.2754                 3.3380                 1.5327
 Frc consts  --      1.5100                 4.0806                 1.8834
 IR Inten    --      9.3494               353.2461                 2.5383

                     91                     92                     93
                      A                      A                      A
 Frequencies --   1459.1255              1475.7549              1484.2506
 Red. masses --      1.2193                 4.4680                 1.0637
 Frc consts  --      1.5295                 5.7331                 1.3806
 IR Inten    --     39.4388               311.2999                 0.3604

                     94                     95                     96
                      A                      A                      A
 Frequencies --   1501.4778              1502.7508              1508.2752
 Red. masses --      1.0378                 1.0433                 1.0907
 Frc consts  --      1.3785                 1.3881                 1.4618
 IR Inten    --     13.6626                14.6862                 3.5281

                     97                     98                     99
                      A                      A                      A
 Frequencies --   1511.9661              1522.0362              1537.4634
 Red. masses --      1.0728                 1.0964                 7.5844
 Frc consts  --      1.4450                 1.4965                10.5629
 IR Inten    --     57.6675                25.7409              1536.3720

                    100                    101                    102
                      A                      A                      A
 Frequencies --   1570.7194              1604.7703              1667.5799
 Red. masses --      2.7702                 2.1950                 5.4129
 Frc consts  --      4.0268                 3.3305                 8.8686
 IR Inten    --     27.6386               392.9032               365.4141

                    103                    104                    105
                      A                      A                      A
 Frequencies --   1688.8966              1743.9266              3068.3880
 Red. masses --      4.2945                 8.8585                 1.0663
 Frc consts  --      7.2172                15.8733                 5.9151
 IR Inten    --     41.2847               788.4985                12.6771

                    106                    107                    108
                      A                      A                      A
 Frequencies --   3069.5375              3069.9164              3077.9083
 Red. masses --      1.0378                 1.0371                 1.0603
 Frc consts  --      5.7610                 5.7587                 5.9183
 IR Inten    --     46.2290                28.9585                25.6569

                    109                    110                    111
                      A                      A                      A
 Frequencies --   3094.0020              3113.8668              3120.3764
 Red. masses --      1.0570                 1.1041                 1.0962
 Frc consts  --      5.9618                 6.3073                 6.2885
 IR Inten    --     52.7369                 1.8349                13.1825

                    112                    113                    114
                      A                      A                      A
 Frequencies --   3136.0714              3137.2837              3148.3648
 Red. masses --      1.1021                 1.1049                 1.1024
 Frc consts  --      6.3864                 6.4073                 6.4384
 IR Inten    --     46.2524                28.5006                39.7372

                    115                    116                    117
                      A                      A                      A
 Frequencies --   3148.7855              3151.3977              3230.5432
 Red. masses --      1.1023                 1.1096                 1.0916
 Frc consts  --      6.4396                 6.4927                 6.7122
 IR Inten    --     38.5762               100.7966                 0.2551

                    118                    119                    120
                      A                      A                      A
 Frequencies --   3256.1422              3281.5748              3325.3242
 Red. masses --      1.0941                 1.0922                 1.0827
 Frc consts  --      6.8346                 6.9300                 7.0541
 IR Inten    --      0.5988                10.8124              1055.5622

 - Thermochemistry -
 -------------------
 Temperature   298.150 Kelvin.  Pressure   1.00000 Atm.
 Atom     1 has atomic number  6 and mass  12.00000

 Molecular mass:   388.09835 amu.
 Principal axes and moments of inertia in atomic units:
                           1         2         3
     Eigenvalues --  6192.98189********************
           X            0.99975   0.02100   0.00773
           Y           -0.02093   0.99974  -0.00911
           Z           -0.00792   0.00895   0.99993
 This molecule is an asymmetric top.
 Rotational symmetry number  1.
 Warning -- assumption of classical behavior for rotation
           may cause significant error
 Rotational temperatures (Kelvin)      0.01399     0.00492     0.00390
 Rotational constants (GHZ):           0.29142     0.10251     0.08136
 Zero-point vibrational energy     809112.7 (Joules/Mol)
                                  193.38258 (Kcal/Mol)
 Warning -- explicit consideration of  40 degrees of freedom as
           vibrations may cause significant error
 Vibrational temperatures:     27.08    33.29    48.83    54.92    63.66
          (Kelvin)             69.57    79.42    87.10    94.37   118.74
                              128.30   136.49   156.51   170.78   181.70
                              210.54   224.46   249.01   269.45   303.87
                              334.35   344.30   366.81   385.66   412.61
                              429.23   468.64   490.20   512.27   569.40
                              575.08   608.98   675.54   693.64   704.42
                              728.57   777.91   824.33   853.16   873.12
                              893.49   940.57   953.48   972.17   982.26
                             1035.01  1099.71  1101.24  1110.42  1118.18
                             1139.28  1180.88  1201.52  1251.86  1269.07
                             1303.88  1327.66  1337.74  1380.93  1446.33
                             1468.36  1478.79  1508.36  1547.11  1585.96
                             1599.27  1603.07  1623.48  1646.13  1661.30
                             1668.69  1676.20  1713.53  1724.71  1738.27
                             1828.19  1852.10  1856.98  1863.35  1893.99
                             1909.34  1919.38  1920.91  1936.12  1941.69
                             1971.51  2027.33  2039.54  2072.45  2077.83
                             2099.36  2123.28  2135.51  2160.29  2162.12
                             2170.07  2175.38  2189.87  2212.07  2259.91
                             2308.91  2399.28  2429.95  2509.12  4414.73
                             4416.38  4416.92  4428.42  4451.58  4480.16
                             4489.53  4512.11  4513.85  4529.79  4530.40
                             4534.16  4648.03  4684.86  4721.45  4784.40

 Zero-point correction=                           0.308175 (Hartree/Particle)
 Thermal correction to Energy=                    0.334733
 Thermal correction to Enthalpy=                  0.335677
 Thermal correction to Gibbs Free Energy=         0.247002
 Sum of electronic and zero-point Energies=          -1535.750787
 Sum of electronic and thermal Energies=             -1535.724229
 Sum of electronic and thermal Enthalpies=           -1535.723285
 Sum of electronic and thermal Free Energies=        -1535.811960

                     E (Thermal)             CV                S
                      KCal/Mol        Cal/Mol-Kelvin    Cal/Mol-Kelvin
 Total                  210.048             93.908            186.632
 Electronic               0.000              0.000              0.000
 Translational            0.889              2.981             43.760
 Rotational               0.889              2.981             36.135
 Vibrational            208.270             87.946            106.737
 Vibration     1          0.593              1.986              6.755
 Vibration     2          0.593              1.985              6.345
 Vibration     3          0.594              1.983              5.585
 Vibration     4          0.594              1.982              5.352
 Vibration     5          0.595              1.980              5.059
 Vibration     6          0.595              1.978              4.884
 Vibration     7          0.596              1.975              4.622
 Vibration     8          0.597              1.973              4.440
 Vibration     9          0.597              1.971              4.281
 Vibration    10          0.600              1.961              3.830
 Vibration    11          0.602              1.957              3.678
 Vibration    12          0.603              1.953              3.557
 Vibration    13          0.606              1.942              3.291
 Vibration    14          0.609              1.934              3.121
 Vibration    15          0.611              1.927              3.002
 Vibration    16          0.617              1.907              2.719
 Vibration    17          0.620              1.896              2.598
 Vibration    18          0.627              1.876              2.402
 Vibration    19          0.632              1.857              2.255
 Vibration    20          0.643              1.824              2.033
 Vibration    21          0.653              1.791              1.860
 Vibration    22          0.657              1.780              1.808
 Vibration    23          0.665              1.754              1.696
 Vibration    24          0.673              1.732              1.609
 Vibration    25          0.684              1.698              1.493
 Vibration    26          0.691              1.677              1.426
 Vibration    27          0.710              1.624              1.281
 Vibration    28          0.720              1.594              1.209
 Vibration    29          0.732              1.563              1.139
 Vibration    30          0.762              1.479              0.978
 Vibration    31          0.766              1.471              0.964
 Vibration    32          0.785              1.420              0.881
 Vibration    33          0.827              1.318              0.739
 Vibration    34          0.838              1.290              0.704
 Vibration    35          0.845              1.273              0.685
 Vibration    36          0.862              1.236              0.642
 Vibration    37          0.896              1.160              0.564
 Vibration    38          0.929              1.090              0.499
 Vibration    39          0.951              1.047              0.462
 Vibration    40          0.966              1.017              0.438

 Optimization completed.
    -- Stationary point found.
 Normal termination of Gaussian 16 at Tue Mar 23 04:13:56 2021.
