 Gaussian 16, Revision C.01,

 ----------------------------------------------------------------------
 # M062X/6-311+G* SCF=Tight INT(grid=ultrafine) OPT=CalcFC IOP(2/17=4)
 EmpiricalDispersion=GD3 MaxDisk=10000MB
 ----------------------------------------------------------------------

 ---------------------------------------
 NM2CA_carboxy_c2.M062X_6-311pGd_opt_GD3
 ---------------------------------------
 Symbolic Z-matrix:
 Charge = -1 Multiplicity = 1

 SCF Done:  E(RM062X) =  -1535.90128994     A.U. after   16 cycles
 SCF Done:  E(RM062X) =  -1535.93445098     A.U. after   14 cycles
 SCF Done:  E(RM062X) =  -1535.96410585     A.U. after   16 cycles
 SCF Done:  E(RM062X) =  -1535.97067737     A.U. after   15 cycles
 SCF Done:  E(RM062X) =  -1535.85304298     A.U. after   17 cycles
 SCF Done:  E(RM062X) =  -1535.96967426     A.U. after   15 cycles
 SCF Done:  E(RM062X) =  -1535.97235894     A.U. after   13 cycles
 SCF Done:  E(RM062X) =  -1535.97318315     A.U. after   15 cycles
 SCF Done:  E(RM062X) =  -1535.97276384     A.U. after   17 cycles
 SCF Done:  E(RM062X) =  -1535.95804680     A.U. after   15 cycles
 SCF Done:  E(RM062X) =  -1535.97882335     A.U. after   11 cycles
 SCF Done:  E(RM062X) =  -1535.97882661     A.U. after   12 cycles
 SCF Done:  E(RM062X) =  -1535.97882729     A.U. after   12 cycles
 SCF Done:  E(RM062X) =  -1535.97882970     A.U. after   12 cycles
 SCF Done:  E(RM062X) =  -1535.97883183     A.U. after   12 cycles
 SCF Done:  E(RM062X) =  -1535.97883220     A.U. after   10 cycles
 SCF Done:  E(RM062X) =  -1535.97883223     A.U. after    9 cycles
 SCF Done:  E(RM062X) =  -1535.97883229     A.U. after    9 cycles
 SCF Done:  E(RM062X) =  -1535.97883235     A.U. after    9 cycles
 Optimization completed.
    -- Stationary point found.
 Normal termination of Gaussian 16 at Mon Mar 22 15:19:34 2021.
 Gaussian 16:  ES64L-G16RevC.01  3-Jul-2019

 ----------------------------------------------------------------------
 # M062X/6-311+G* SCF=Tight INT(grid=ultrafine) EmpiricalDispersion=GD3
  Freq=Noraman MaxDisk=10000MB geom=check guess=read IOP(2/17=4)
 ----------------------------------------------------------------------

 ---------------------------------------
 NM2CA_carboxy_c2.M062X_6-311pGd_opt_GD3
 ---------------------------------------
 Structure from the checkpoint file:  "NM2CA_carboxy_c2.M062X_6-311pGd_opt_GD3.chk"
 Charge = -1 Multiplicity = 1

                         Standard orientation:
 ---------------------------------------------------------------------
 Center     Atomic      Atomic             Coordinates (Angstroms)
 Number     Number       Type             X           Y           Z
 ---------------------------------------------------------------------
      1          6           0       -0.009388   -0.908129    0.011440
      2          7           0       -1.381088   -0.712294   -0.007017
      3          6           0       -2.308779   -1.699230   -0.078656
      4          8           0       -2.123865   -2.897568   -0.161427
      5          8           0       -3.545732   -1.157415   -0.052582
      6          6           0       -4.624376   -2.078720   -0.114891
      7          6           0       -5.906310   -1.271376   -0.072206
      8          6           0       -7.133892   -2.175908   -0.128143
      9          6           0        0.792904    0.246464   -0.090204
     10          6           0        2.171224    0.156098   -0.043893
     11          6           0        2.803562   -1.096069    0.083150
     12          6           0        2.002367   -2.226564    0.171596
     13          6           0        0.616042   -2.152511    0.137476
     14          1           0       -1.738629    0.290975    0.119394
     15          1           0       -4.562480   -2.775835    0.726924
     16          1           0       -4.552699   -2.668739   -1.034083
     17          1           0       -5.906545   -0.568947   -0.909745
     18          1           0       -5.910939   -0.668833    0.839758
     19          1           0       -7.146981   -2.770567   -1.045813
     20          1           0       -8.056972   -1.593817   -0.097652
     21          1           0       -7.152589   -2.871394    0.715574
     22          1           0        0.304755    1.208247   -0.245696
     23          1           0        0.023259   -3.051477    0.204663
     24          6           0        4.290854   -1.282629    0.172822
     25          6           0        2.947882    1.444060   -0.180419
     26          1           0        2.469060   -3.198765    0.269089
     27          9           0        4.975764   -0.539603   -0.708570
     28          9           0        4.643500   -2.563456   -0.064833
     29          9           0        4.784796   -0.992335    1.391939
     30          9           0        2.194223    2.515166    0.061385
     31          9           0        3.460370    1.598609   -1.414223
     32          9           0        3.985371    1.501439    0.678178
     33          8           0       -0.955875    2.715834   -1.023559
     34          8           0       -2.267777    1.727224    0.497043
     35          6           0       -1.876881    2.714867   -0.191504
     36          6           0       -2.609425    4.048025    0.046420
     37          6           0       -3.845266    3.941970    0.930168
     38          1           0       -2.854779    4.461407   -0.936244
     39          1           0       -1.877117    4.736287    0.482109
     40          1           0       -4.577743    3.261683    0.490674
     41          1           0       -4.320957    4.917792    1.073453
     42          1           0       -3.584368    3.532992    1.907105
 ---------------------------------------------------------------------

 SCF Done:  E(RM062X) =  -1535.97883235     A.U. after    2 cycles

 The electronic state is 1-A.
 Alpha  occ. eigenvalues --  -25.18911 -25.18559 -25.18236 -25.17601 -25.17286
 Alpha  occ. eigenvalues --  -25.17234 -19.56207 -19.50187 -19.43258 -19.42215
 Alpha  occ. eigenvalues --  -14.66136 -10.71401 -10.70297 -10.59353 -10.50471
 Alpha  occ. eigenvalues --  -10.50461 -10.49062 -10.48645 -10.48260 -10.47007
 Alpha  occ. eigenvalues --  -10.46087 -10.45725 -10.45288 -10.45153 -10.40739
 Alpha  occ. eigenvalues --  -10.40562  -1.38026  -1.36882  -1.28653  -1.28216
 Alpha  occ. eigenvalues --   -1.27417  -1.27194  -1.14184  -1.04098  -1.02005
 Alpha  occ. eigenvalues --   -0.95181  -0.92184  -0.88971  -0.81804  -0.79505
 Alpha  occ. eigenvalues --   -0.79102  -0.73886  -0.73281  -0.71155  -0.69901
 Alpha  occ. eigenvalues --   -0.64764  -0.63541  -0.60836  -0.60356  -0.60261
 Alpha  occ. eigenvalues --   -0.60018  -0.59549  -0.59066  -0.58552  -0.57399
 Alpha  occ. eigenvalues --   -0.53720  -0.52593  -0.49409  -0.48918  -0.48733
 Alpha  occ. eigenvalues --   -0.48364  -0.47422  -0.47333  -0.46124  -0.45808
 Alpha  occ. eigenvalues --   -0.44744  -0.44366  -0.44206  -0.43441  -0.42998
 Alpha  occ. eigenvalues --   -0.42893  -0.42296  -0.42123  -0.41027  -0.40980
 Alpha  occ. eigenvalues --   -0.40543  -0.40079  -0.39342  -0.39220  -0.38435
 Alpha  occ. eigenvalues --   -0.36805  -0.36270  -0.35853  -0.35534  -0.34714
 Alpha  occ. eigenvalues --   -0.33202  -0.32800  -0.32640  -0.32182  -0.31855
 Alpha  occ. eigenvalues --   -0.29864  -0.28766  -0.27707  -0.27597  -0.26025
 Alpha  occ. eigenvalues --   -0.23183  -0.18519  -0.18489  -0.18016  -0.16979
 Alpha virt. eigenvalues --    0.08070   0.08687   0.09875   0.10136   0.10291
 Alpha virt. eigenvalues --    0.10925   0.11025   0.11580   0.11923   0.12704
 Alpha virt. eigenvalues --    0.13103   0.13607   0.13743   0.14145   0.14288

 Mulliken charges:
               1
     1  C   -0.600755
     2  N   -0.574089
     3  C   -0.076817
     4  O   -0.332976
     5  O    0.004128
     6  C   -0.266440
     7  C   -0.154931
     8  C   -1.086554
     9  C   -0.433732
    10  C   -0.107501
    11  C   -0.629324
    12  C   -0.266321
    13  C   -0.252400
    14  H    0.564376
    15  H    0.245033
    16  H    0.244821
    17  H    0.264744
    18  H    0.267843
    19  H    0.250062
    20  H    0.260934
    21  H    0.249541
    22  H    0.408604
    23  H    0.288282
    24  C    0.783533
    25  C    1.036867
    26  H    0.258120
    27  F   -0.075970
    28  F   -0.136233
    29  F   -0.051486
    30  F   -0.092787
    31  F   -0.043964
    32  F   -0.084777
    33  O   -0.413795
    34  O   -0.416023
    35  C    0.068438
    36  C   -0.384979
    37  C   -0.940887
    38  H    0.246322
    39  H    0.247356
    40  H    0.250562
    41  H    0.225044
    42  H    0.258132
 Sum of Mulliken charges =  -1.00000

 Dipole moment (field-independent basis, Debye):
    X=             -1.2567    Y=             -4.9639    Z=              1.1981  Tot=              5.2588
 Quadrupole moment (field-independent basis, Debye-Ang):
   XX=           -193.4362   YY=           -184.0379   ZZ=           -159.9714
   XY=              7.2025   XZ=              1.9012   YZ=              3.2131

  Exact polarizability:     277.928       1.266     215.538      -3.936      -3.501     140.881
 Approx polarizability:     278.377       3.470     255.796      -5.190      -7.201     188.324

                      1                      2                      3
                      A                      A                      A
 Frequencies --     12.6528                19.5863                23.4496
 Red. masses --      4.0485                 5.8535                 6.0687
 Frc consts  --      0.0004                 0.0013                 0.0020
 IR Inten    --      0.2868                 0.8854                 0.2587

                      4                      5                      6
                      A                      A                      A
 Frequencies --     32.4082                39.6420                42.2808
 Red. masses --      5.2358                 2.2011                 3.2102
 Frc consts  --      0.0032                 0.0020                 0.0034
 IR Inten    --      1.0265                 0.5404                 0.9258

                      7                      8                      9
                      A                      A                      A
 Frequencies --     54.1647                57.7263                72.2418
 Red. masses --      7.2915                 3.6369                 6.0695
 Frc consts  --      0.0126                 0.0071                 0.0187
 IR Inten    --      0.9150                 0.6308                 3.7492

                     10                     11                     12
                      A                      A                      A
 Frequencies --     75.1260                76.1694                92.5982
 Red. masses --      5.1671                 5.0915                 9.0682
 Frc consts  --      0.0172                 0.0174                 0.0458
 IR Inten    --      2.7922                 1.7820                 1.4262

                     13                     14                     15
                      A                      A                      A
 Frequencies --     93.3778               117.2315               134.1263
 Red. masses --      6.6103                 5.2332                 6.3806
 Frc consts  --      0.0340                 0.0424                 0.0676
 IR Inten    --      3.0492                 2.4841                21.7810

                     16                     17                     18
                      A                      A                      A
 Frequencies --    144.6723               151.5191               164.3392
 Red. masses --      5.1656                 6.7263                12.9056
 Frc consts  --      0.0637                 0.0910                 0.2054
 IR Inten    --      4.0297                 6.5737                 0.7972

                     19                     20                     21
                      A                      A                      A
 Frequencies --    174.3029               203.1206               221.0198
 Red. masses --      4.5238                 8.1366                 1.1242
 Frc consts  --      0.0810                 0.1978                 0.0324
 IR Inten    --      3.2398                 0.5246                 0.7079

                     22                     23                     24
                      A                      A                      A
 Frequencies --    237.1927               244.7026               249.0932
 Red. masses --      1.1494                 5.7610                 7.2853
 Frc consts  --      0.0381                 0.2032                 0.2663
 IR Inten    --      0.0294                 0.3482                 0.5977

                     25                     26                     27
                      A                      A                      A
 Frequencies --    259.4484               315.2300               325.1826
 Red. masses --     11.4231                 4.1256                 7.8227
 Frc consts  --      0.4530                 0.2415                 0.4874
 IR Inten    --      7.2336                37.0221                 1.4167

                     28                     29                     30
                      A                      A                      A
 Frequencies --    342.1492               355.3556               364.7535
 Red. masses --     14.3857                 5.2366                 5.9195
 Frc consts  --      0.9922                 0.3896                 0.4640
 IR Inten    --      0.3036                16.7603                 9.3536

                     31                     32                     33
                      A                      A                      A
 Frequencies --    426.7059               431.2414               475.7951
 Red. masses --      6.6446                 6.5632                 7.2301
 Frc consts  --      0.7128                 0.7191                 0.9644
 IR Inten    --     10.7986                13.1480                 3.9620

                     34                     35                     36
                      A                      A                      A
 Frequencies --    484.3379               504.5920               511.7824
 Red. masses --      6.6788                 5.2591                 6.3156
 Frc consts  --      0.9231                 0.7889                 0.9746
 IR Inten    --      1.8318                 1.0704                27.0579

                     37                     38                     39
                      A                      A                      A
 Frequencies --    542.5426               575.0437               589.1227
 Red. masses --     11.2638                14.7272                 2.0578
 Frc consts  --      1.9535                 2.8693                 0.4208
 IR Inten    --      1.6084                 2.0302                 5.3312

                     40                     41                     42
                      A                      A                      A
 Frequencies --    608.9705               625.5062               658.6810
 Red. masses --      6.1590                 8.9697                 6.0390
 Frc consts  --      1.3457                 2.0677                 1.5437
 IR Inten    --      8.3653                 1.0256                 7.7890

                     43                     44                     45
                      A                      A                      A
 Frequencies --    662.1773               668.1501               680.3333
 Red. masses --      4.8108                 6.2077                 9.3403
 Frc consts  --      1.2428                 1.6328                 2.5471
 IR Inten    --     37.6651                15.6847                 4.2923

                     46                     47                     48
                      A                      A                      A
 Frequencies --    758.1121               761.7497               764.6759
 Red. masses --      5.8251                 1.0970                 9.2247
 Frc consts  --      1.9725                 0.3750                 3.1780
 IR Inten    --      8.2144                 2.6633                 5.2350

                     49                     50                     51
                      A                      A                      A
 Frequencies --    781.0379               801.3302               803.8835
 Red. masses --     11.5094                 7.7680                 8.9039
 Frc consts  --      4.1366                 2.9389                 3.3901
 IR Inten    --      1.6267                58.2557                49.1635

                     52                     53                     54
                      A                      A                      A
 Frequencies --    822.9337               871.4254               881.7959
 Red. masses --      1.4618                 1.4471                 3.9207
 Frc consts  --      0.5833                 0.6475                 1.7962
 IR Inten    --      6.8815                43.9390                46.6194

                     55                     56                     57
                      A                      A                      A
 Frequencies --    903.4098               920.3857               945.2901
 Red. masses --      1.1536                 2.1796                 3.0393
 Frc consts  --      0.5547                 1.0878                 1.6001
 IR Inten    --      2.9768                41.2284                51.4207

                     58                     59                     60
                      A                      A                      A
 Frequencies --    978.7711              1004.8480              1014.9276
 Red. masses --      1.3727                 1.3223                 1.6631
 Frc consts  --      0.7748                 0.7867                 1.0094
 IR Inten    --     10.0234                 3.0124                 7.8485

                     61                     62                     63
                      A                      A                      A
 Frequencies --   1024.1692              1048.7965              1075.1037
 Red. masses --      5.8885                 6.1422                 2.4826
 Frc consts  --      3.6391                 3.9807                 1.6906
 IR Inten    --      3.9046                33.9681                 1.1731

                     64                     65                     66
                      A                      A                      A
 Frequencies --   1106.4836              1109.4351              1119.1920
 Red. masses --      1.8025                 2.2552                 1.2192
 Frc consts  --      1.3002                 1.6354                 0.8998
 IR Inten    --      3.2287                 6.7628               112.3825

                     67                     68                     69
                      A                      A                      A
 Frequencies --   1138.3528              1150.4428              1164.6195
 Red. masses --      4.1333                 4.3621                 4.3544
 Frc consts  --      3.1558                 3.4016                 3.4798
 IR Inten    --    102.4093                85.8234               206.2853

                     70                     71                     72
                      A                      A                      A
 Frequencies --   1166.7954              1173.0477              1196.6316
 Red. masses --      2.4757                 4.8507                 1.6726
 Frc consts  --      1.9858                 3.9327                 1.4111
 IR Inten    --     23.8427                13.9521                 0.3598

                     73                     74                     75
                      A                      A                      A
 Frequencies --   1199.6083              1214.3819              1240.6988
 Red. masses --     10.3344                 2.1368                 8.8937
 Frc consts  --      8.7622                 1.8567                 8.0662
 IR Inten    --    517.0506               165.2370               470.9992

                     76                     77                     78
                      A                      A                      A
 Frequencies --   1288.0011              1288.9306              1304.5787
 Red. masses --      1.1888                 1.1856                 2.9096
 Frc consts  --      1.1620                 1.1605                 2.9176
 IR Inten    --      0.1540                 0.5147              1017.7312

                     79                     80                     81
                      A                      A                      A
 Frequencies --   1307.4163              1330.6843              1332.4648
 Red. masses --      4.2632                 1.6256                 1.0743
 Frc consts  --      4.2935                 1.6959                 1.1238
 IR Inten    --    149.7274                34.9009                 0.5366

                     82                     83                     84
                      A                      A                      A
 Frequencies --   1336.3948              1347.9869              1352.4665
 Red. masses --      2.3502                 1.6701                 3.1561
 Frc consts  --      2.4730                 1.7880                 3.4014
 IR Inten    --    179.5143               146.3309               165.4194

                     85                     86                     87
                      A                      A                      A
 Frequencies --   1367.2659              1393.6360              1412.3482
 Red. masses --      3.1518                 3.1582                 1.4761
 Frc consts  --      3.4714                 3.6140                 1.7348
 IR Inten    --      4.2983               631.9893               101.6423

                     88                     89                     90
                      A                      A                      A
 Frequencies --   1426.6913              1444.5331              1449.9080
 Red. masses --      1.2702                 3.2700                 1.7377
 Frc consts  --      1.5232                 4.0203                 2.1523
 IR Inten    --      4.4484               414.5354                61.9792

                     91                     92                     93
                      A                      A                      A
 Frequencies --   1473.0127              1486.3872              1508.0739
 Red. masses --      3.9059                 1.1420                 1.0400
 Frc consts  --      4.9933                 1.4866                 1.3936
 IR Inten    --      2.1894                 3.4338                 5.0507

                     94                     95                     96
                      A                      A                      A
 Frequencies --   1509.5979              1520.9980              1522.7568
 Red. masses --      1.0626                 1.0710                 1.0377
 Frc consts  --      1.4267                 1.4598                 1.4177
 IR Inten    --      2.9065                41.5379                 8.4460

                     97                     98                     99
                      A                      A                      A
 Frequencies --   1526.2620              1541.0433              1580.9537
 Red. masses --      1.0744                 1.0900                 3.2821
 Frc consts  --      1.4747                 1.5251                 4.8332
 IR Inten    --      2.5674                11.4333                 5.8722

                    100                    101                    102
                      A                      A                      A
 Frequencies --   1631.4442              1669.4358              1692.6153
 Red. masses --      4.9670                 6.9180                 6.0549
 Frc consts  --      7.7891                11.3598                10.2205
 IR Inten    --    260.3473               222.7918               403.1668

                    103                    104                    105
                      A                      A                      A
 Frequencies --   1709.1049              1798.4773              2503.3337
 Red. masses --      1.7108                 7.7938                 1.1456
 Frc consts  --      2.9444                14.8527                 4.2296
 IR Inten    --    531.3202               293.2225              2700.6466

                    106                    107                    108
                      A                      A                      A
 Frequencies --   3054.4875              3060.8853              3065.0366
 Red. masses --      1.0442                 1.0392                 1.0552
 Frc consts  --      5.7397                 5.7364                 5.8406
 IR Inten    --     68.6306                15.3696                50.1853

                    109                    110                    111
                      A                      A                      A
 Frequencies --   3067.4333              3086.7147              3099.3231
 Red. masses --      1.0612                 1.0606                 1.1058
 Frc consts  --      5.8832                 5.9540                 6.2586
 IR Inten    --     20.5819                25.6500                13.4144

                    112                    113                    114
                      A                      A                      A
 Frequencies --   3101.2852              3115.6001              3124.7270
 Red. masses --      1.0996                 1.1038                 1.0957
 Frc consts  --      6.2314                 6.3131                 6.3032
 IR Inten    --     15.2000                 0.6462                44.9082

                    115                    116                    117
                      A                      A                      A
 Frequencies --   3137.9648              3140.0699              3150.4859
 Red. masses --      1.1010                 1.1053                 1.1011
 Frc consts  --      6.3873                 6.4210                 6.4394
 IR Inten    --     36.0499                60.9553                36.0229

                    118                    119                    120
                      A                      A                      A
 Frequencies --   3153.3772              3236.7693              3288.3632
 Red. masses --      1.0958                 1.0904                 1.0921
 Frc consts  --      6.4197                 6.7304                 6.9578
 IR Inten    --    215.4424                 3.5436                 2.6896

 - Thermochemistry -
 -------------------
 Temperature   298.150 Kelvin.  Pressure   1.00000 Atm.
 Atom     1 has atomic number  6 and mass  12.00000

 Molecular mass:   388.09835 amu.
 Principal axes and moments of inertia in atomic units:
                           1         2         3
     Eigenvalues --  6402.66537********************
           X            0.99999   0.00278  -0.00166
           Y           -0.00277   0.99996   0.00889
           Z            0.00168  -0.00889   0.99996
 This molecule is an asymmetric top.
 Rotational symmetry number  1.
 Warning -- assumption of classical behavior for rotation
           may cause significant error
 Rotational temperatures (Kelvin)      0.01353     0.00486     0.00372
 Rotational constants (GHZ):           0.28187     0.10117     0.07761
 Zero-point vibrational energy     808804.2 (Joules/Mol)
                                  193.30885 (Kcal/Mol)
 Warning -- explicit consideration of  40 degrees of freedom as
           vibrations may cause significant error
 Vibrational temperatures:     18.20    28.18    33.74    46.63    57.04
          (Kelvin)             60.83    77.93    83.06   103.94   108.09
                              109.59   133.23   134.35   168.67   192.98
                              208.15   218.00   236.45   250.78   292.25
                              318.00   341.27   352.07   358.39   373.29
                              453.55   467.87   492.28   511.28   524.80
                              613.93   620.46   684.56   696.85   726.00
                              736.34   780.60   827.36   847.62   876.17
                              899.96   947.70   952.73   961.32   978.85
                             1090.75  1095.99  1100.20  1123.74  1152.94
                             1156.61  1184.02  1253.79  1268.71  1299.81
                             1324.23  1360.06  1408.23  1445.75  1460.25
                             1473.55  1508.98  1546.83  1591.98  1596.23
                             1610.27  1637.84  1655.23  1675.63  1678.76
                             1687.75  1721.69  1725.97  1747.22  1785.09
                             1853.15  1854.48  1877.00  1881.08  1914.56
                             1917.12  1922.77  1939.45  1945.90  1967.19
                             2005.13  2032.05  2052.69  2078.36  2086.09
                             2119.34  2138.58  2169.78  2171.97  2188.38
                             2190.91  2195.95  2217.22  2274.64  2347.28
                             2401.95  2435.30  2459.02  2587.61  3601.74
                             4394.73  4403.93  4409.90  4413.35  4441.09
                             4459.23  4462.06  4482.65  4495.79  4514.83
                             4517.86  4532.85  4537.01  4656.99  4731.22

 Zero-point correction=                           0.308057 (Hartree/Particle)
 Thermal correction to Energy=                    0.334761
 Thermal correction to Enthalpy=                  0.335705
 Thermal correction to Gibbs Free Energy=         0.245197
 Sum of electronic and zero-point Energies=          -1535.670775
 Sum of electronic and thermal Energies=             -1535.644072
 Sum of electronic and thermal Enthalpies=           -1535.643127
 Sum of electronic and thermal Free Energies=        -1535.733636

                     E (Thermal)             CV                S
                      KCal/Mol        Cal/Mol-Kelvin    Cal/Mol-Kelvin
 Total                  210.066             93.219            190.491
 Electronic               0.000              0.000              0.000
 Translational            0.889              2.981             43.760
 Rotational               0.889              2.981             36.228
 Vibrational            208.288             87.258            110.503
 Vibration     1          0.593              1.987              7.544
 Vibration     2          0.593              1.986              6.676
 Vibration     3          0.593              1.985              6.318
 Vibration     4          0.594              1.983              5.676
 Vibration     5          0.594              1.981              5.277
 Vibration     6          0.595              1.980              5.149
 Vibration     7          0.596              1.976              4.659
 Vibration     8          0.596              1.974              4.533
 Vibration     9          0.598              1.967              4.091
 Vibration    10          0.599              1.966              4.014
 Vibration    11          0.599              1.965              3.987
 Vibration    12          0.602              1.954              3.604
 Vibration    13          0.602              1.954              3.588
 Vibration    14          0.608              1.935              3.146
 Vibration    15          0.613              1.919              2.886
 Vibration    16          0.616              1.908              2.741
 Vibration    17          0.619              1.901              2.653
 Vibration    18          0.623              1.886              2.499
 Vibration    19          0.627              1.874              2.389
 Vibration    20          0.639              1.835              2.105
 Vibration    21          0.648              1.809              1.951
 Vibration    22          0.656              1.784              1.824
 Vibration    23          0.660              1.772              1.768
 Vibration    24          0.662              1.764              1.737
 Vibration    25          0.668              1.747              1.665
 Vibration    26          0.703              1.645              1.335
 Vibration    27          0.709              1.625              1.284
 Vibration    28          0.721              1.591              1.202
 Vibration    29          0.731              1.564              1.142
 Vibration    30          0.738              1.545              1.102
 Vibration    31          0.788              1.412              0.869
 Vibration    32          0.792              1.402              0.855
 Vibration    33          0.832              1.304              0.721
 Vibration    34          0.840              1.285              0.698
 Vibration    35          0.860              1.240              0.647
 Vibration    36          0.867              1.224              0.629
 Vibration    37          0.898              1.156              0.560
 Vibration    38          0.931              1.085              0.495
 Vibration    39          0.946              1.055              0.469
 Vibration    40          0.968              1.013              0.434

 Optimization completed.
    -- Stationary point found.
 Normal termination of Gaussian 16 at Tue Mar 23 01:39:21 2021.
