 Gaussian 09, Revision E.01,
 Gaussian 09:  ES64L-G09RevE.01 30-Nov-2015

 -------------------------------------------------------------
 # MP2/Gen 6D SCF=Tight INT(grid=ultrafine) maxdisk=3489660928
 -------------------------------------------------------------

 ----------------
 CP21.MP2_6-31pGd
 ----------------
 Symbolic Z-matrix:
 Charge =  0 Multiplicity = 1

                         Standard orientation:
 ---------------------------------------------------------------------
 Center     Atomic      Atomic             Coordinates (Angstroms)
 Number     Number       Type             X           Y           Z
 ---------------------------------------------------------------------
      1          6           0        0.919378    0.623723   -0.075535
      2          7           0        2.282153    0.808804    0.143034
      3          6           0        3.312255   -0.103084   -0.095098
      4          8           0        3.132667   -1.235924   -0.481205
      5          7           0        4.552880    0.406523    0.186077
      6          6           0        5.731804   -0.399281   -0.108239
      7          6           0        6.977488    0.246923    0.479613
      8          6           0        8.225503   -0.581743    0.191993
      9          6           0        0.388366   -0.486841   -0.748781
     10          6           0       -0.980601   -0.574616   -0.943309
     11          6           0       -1.815860    0.431989   -0.469642
     12          6           0       -1.306019    1.541342    0.199858
     13          6           0        0.058030    1.630487    0.392509
     14          1           0        2.527685    1.643830    0.653698
     15          1           0        4.676427    1.408513    0.165936
     16          1           0        5.842691   -0.538549   -1.189988
     17          1           0        5.571315   -1.388149    0.324201
     18          1           0        6.841640    0.366684    1.558532
     19          1           0        7.101977    1.253025    0.061683
     20          1           0        8.138094   -1.583137    0.619814
     21          1           0        9.115873   -0.115403    0.615934
     22          1           0        8.387009   -0.692542   -0.882861
     23          1           0        1.043061   -1.264592   -1.108727
     24          6           0       -4.061462   -0.652882    0.840105
     25          1           0       -1.973287    2.320174    0.550045
     26          1           0        0.469610    2.493132    0.906763
     27          9           0       -3.727981    0.033931    1.925609
     28          9           0       -5.369795   -0.836101    0.821999
     29          9           0       -3.451435   -1.829998    0.871361
     30         16           0       -3.554721    0.289021   -0.690019
     31          8           0       -3.841595   -0.602477   -1.793282
     32          8           0       -4.173365    1.590845   -0.552706
     33          1           0       -1.403847   -1.420750   -1.472512
 ---------------------------------------------------------------------

 SCF Done:  E(RHF) =  -1453.40861806     A.U. after   18 cycles
 E2 =    -0.2957895935D+01 EUMP2 =    -0.14563665139905D+04

 The electronic state is 1-A.
 Alpha  occ. eigenvalues --  -92.22092 -26.38410 -26.38371 -26.38161 -20.58495
 Alpha  occ. eigenvalues --  -20.58451 -20.55636 -15.63986 -15.61401 -11.55130
 Alpha  occ. eigenvalues --  -11.41492 -11.33669 -11.29034 -11.28862 -11.28615
 Alpha  occ. eigenvalues --  -11.27986 -11.27126 -11.25847 -11.24842 -11.23491
 Alpha  occ. eigenvalues --   -9.19562  -6.88144  -6.88089  -6.88041  -1.76930
 Alpha  occ. eigenvalues --   -1.67161  -1.67122  -1.48165  -1.43297  -1.37000
 Alpha  occ. eigenvalues --   -1.29645  -1.25350  -1.18923  -1.08673  -1.06750
 Alpha  occ. eigenvalues --   -1.06009  -1.02584  -0.96094  -0.93046  -0.88916
 Alpha  occ. eigenvalues --   -0.87812  -0.85660  -0.85605  -0.83910  -0.82844
 Alpha  occ. eigenvalues --   -0.80373  -0.77544  -0.75639  -0.74055  -0.73764
 Alpha  occ. eigenvalues --   -0.71857  -0.69491  -0.69241  -0.68321  -0.67605
 Alpha  occ. eigenvalues --   -0.67518  -0.67207  -0.66093  -0.65326  -0.64488
 Alpha  occ. eigenvalues --   -0.63676  -0.63509  -0.62114  -0.59670  -0.58735
 Alpha  occ. eigenvalues --   -0.57257  -0.54773  -0.53909  -0.52851  -0.52295
 Alpha  occ. eigenvalues --   -0.51797  -0.50742  -0.50126  -0.49578  -0.48037
 Alpha  occ. eigenvalues --   -0.47048  -0.45978  -0.42191  -0.37489  -0.34584
 Alpha virt. eigenvalues --    0.03896   0.06423   0.06934   0.07536   0.08056
 Alpha virt. eigenvalues --    0.08545   0.08745   0.09125   0.09690   0.10082
 Alpha virt. eigenvalues --    0.10189   0.10709   0.11353   0.11904   0.12386

 Mulliken charges:
               1
     1  C    0.226457
     2  N   -0.806172
     3  C    0.709410
     4  O   -0.627569
     5  N   -0.687588
     6  C   -0.067027
     7  C   -0.279381
     8  C   -0.673158
     9  C    0.041619
    10  C   -0.002334
    11  C   -0.406924
    12  C   -0.170836
    13  C   -0.984639
    14  H    0.460548
    15  H    0.420335
    16  H    0.204402
    17  H    0.226483
    18  H    0.207622
    19  H    0.181976
    20  H    0.199148
    21  H    0.200984
    22  H    0.197501
    23  H    0.319417
    24  C    1.116113
    25  H    0.296097
    26  H    0.234463
    27  F   -0.362813
    28  F   -0.368933
    29  F   -0.356801
    30  S    1.521251
    31  O   -0.622866
    32  O   -0.643172
    33  H    0.296388
 Sum of Mulliken charges =  -0.00000

 Dipole moment (field-independent basis, Debye):
    X=              8.7429    Y=              3.3832    Z=              2.6813  Tot=              9.7506
 Quadrupole moment (field-independent basis, Debye-Ang):
   XX=           -124.0851   YY=           -122.7127   ZZ=           -129.6465
   XY=             15.6272   XZ=             -5.5676   YZ=              2.7995

 Normal termination of Gaussian 09 at Sat Nov 30 15:06:34 2019.
