 Q-Chem 5.0, Q-Chem, Inc., Pleasanton, CA (2017)
 Q-Chem 5.0.0 for Intel X86 EM64T Linux

User input:
--------------------------------------------------------------
$molecule
  0 1
    C     -6.1044543489    1.2545902395    0.3631341035
    N     -4.8489735137    0.6573868288    0.2837678461
    C     -3.6261917011    1.2810695458    0.0284640560
    O     -3.5111289552    2.4588492034   -0.2250195425
    N     -2.5662839242    0.4130669570    0.0612400260
    C     -1.2153797956    0.9403401283   -0.0899085938
    C     -0.2162148296   -0.1958797023   -0.2497600858
    C      1.2057893477    0.3300787647   -0.4177627534
    C     -6.3008839983    2.6438345306    0.3640095699
    C     -7.5861261431    3.1497409178    0.4727686925
    C     -8.6682484411    2.2817056035    0.5766817331
    C     -8.4916388752    0.9005330639    0.5781965004
    C     -7.2112373290    0.3956353252    0.4717054416
    H     -4.8508404271   -0.3517187462    0.2778444281
    H     -2.6594795947   -0.4389022026    0.5952046070
    H     -0.9499449328    1.5705068533    0.7670075230
    H     -1.2096051222    1.5839919268   -0.9709875344
    H     -0.5013216011   -0.8023170952   -1.1145218908
    H     -0.2623103482   -0.8522781820    0.6274062036
    H      1.2856482106    0.9685251527   -1.3006389909
    H      1.9185520921   -0.4876351675   -0.5329551588
    H      1.5133618968    0.9207506868    0.4483649138
    H     -5.4564495680    3.3092109411    0.2786368211
    C    -10.7670380300    3.0768886995   -1.1256340199
    H     -9.3473399474    0.2422293940    0.6723739298
    H     -7.0584916298   -0.6789044537    0.4784756485
    F    -10.7198112820    1.8813726111   -1.6998743749
    F    -11.9938616485    3.5588062002   -1.2166817861
    F     -9.9263648575    3.8888187982   -1.7523336083
    S    -10.2971581173    2.9370590805    0.6757292013
    O    -10.2531086353    4.2999536823    1.1603223623
    O    -11.1929336704    1.9392994818    1.2219731001
    H     -7.7519602798    4.2209209328    0.4872016321

$end

$rem

    JOBTYPE               sp
    METHOD                CCSD(T)
    BASIS                 6-31+G*
    CC_BACKEND            XM

    MEM_TOTAL             60000
$end
--------------------------------------------------------------

             Standard Nuclear Orientation (Angstroms)
    I     Atom           X                Y                Z
 ----------------------------------------------------------------
    1      C       0.9193781301    -0.6237225175     0.0755352039
    2      N       2.2821530761    -0.8088035742    -0.1430339911
    3      C       3.3122552741     0.1030836696     0.0950975568
    4      O       3.1326669619     1.2359241405     0.4812047929
    5      N       4.5528798438    -0.4065227895    -0.1860771004
    6      C       5.7318041938     0.3992812105     0.1082393239
    7      C       6.9774883627    -0.2469226977    -0.4796127768
    8      C       8.2255034536     0.5817425086    -0.1919925508
    9      C       0.3883664202     0.4868410574     0.7487812095
   10      C      -0.9806009398     0.5746159163     0.9433091806
   11      C      -1.8158598748    -0.4319891151     0.4696418742
   12      C      -1.3060188937    -1.5413417960    -0.1998576557
   13      C       0.0580298623    -1.6304866539    -0.3925085767
   14      H       2.5276848400    -1.6438298731    -0.6536981340
   15      H       4.6764274221    -1.4085134946    -0.1659356367
   16      H       5.8426905391     0.5385488465     1.1899877896
   17      H       5.5713151623     1.3881492645    -0.3242006450
   18      H       6.8416399781    -0.3666835480    -1.5585324759
   19      H       7.1019771669    -1.2530247217    -0.0616825011
   20      H       8.1380935658     1.5831365731    -0.6198139132
   21      H       9.1158725904     0.1154030166    -0.6159340249
   22      H       8.3870089530     0.6925418771     0.8828613007
   23      H       1.0430614649     1.2645924440     1.1087269833
   24      C      -4.0614624667     0.6528819363    -0.8401049023
   25      H      -1.9732874061    -2.3201735405    -0.5500451501
   26      H       0.4696101762    -2.4931320287    -0.9067628166
   27      F      -3.7279811139    -0.0339311465    -1.9256089536
   28      F      -5.3697947208     0.8361010789    -0.8219990284
   29      F      -3.4514346005     1.8299984453    -0.8713614037
   30      S      -3.5547213547    -0.2890213376     0.6900194643
   31      O      -3.8415947229     0.6024765664     1.7932817822
   32      O      -4.1733652247    -1.5908451420     0.5527059554
   33      H      -1.4038465461     1.4207501044     1.4725123435
 ----------------------------------------------------------------

   16   -1453.4086180387      4.94E-09 Convergence criterion met
 Total energy in the final basis set = -1453.4086180387
 CCSD total energy           = -1456.43980335
 CCSD(T) total energy       = -1456.55531898

                    Orbital Energies (a.u.)
 --------------------------------------------------------------

 Alpha MOs
 -- Occupied --
-92.221 -26.384 -26.384 -26.382 -20.585 -20.585 -20.556 -15.640
-15.614 -11.551 -11.415 -11.337 -11.290 -11.289 -11.286 -11.280
-11.271 -11.258 -11.248 -11.235  -9.196  -6.881  -6.881  -6.880
 -1.769  -1.672  -1.671  -1.482  -1.433  -1.370  -1.296  -1.253
 -1.189  -1.087  -1.068  -1.060  -1.026  -0.961  -0.930  -0.889
 -0.878  -0.857  -0.856  -0.839  -0.828  -0.804  -0.775  -0.756
 -0.741  -0.738  -0.719  -0.695  -0.692  -0.683  -0.676  -0.675
 -0.672  -0.661  -0.653  -0.645  -0.637  -0.635  -0.621  -0.597
 -0.587  -0.573  -0.548  -0.539  -0.529  -0.523  -0.518  -0.507
 -0.501  -0.496  -0.480  -0.470  -0.460  -0.422  -0.375  -0.346

          Ground-State Mulliken Net Atomic Charges

     Atom                 Charge (a.u.)
  ----------------------------------------
      1 C                     0.226454
      2 N                    -0.806172
      3 C                     0.709408
      4 O                    -0.627568
      5 N                    -0.687588
      6 C                    -0.067025
      7 C                    -0.279383
      8 C                    -0.673158
      9 C                     0.041616
     10 C                    -0.002334
     11 C                    -0.406922
     12 C                    -0.170843
     13 C                    -0.984628
     14 H                     0.460548
     15 H                     0.420335
     16 H                     0.204402
     17 H                     0.226483
     18 H                     0.207622
     19 H                     0.181976
     20 H                     0.199148
     21 H                     0.200984
     22 H                     0.197501
     23 H                     0.319417
     24 C                     1.116112
     25 H                     0.296097
     26 H                     0.234463
     27 F                    -0.362813
     28 F                    -0.368933
     29 F                    -0.356801
     30 S                     1.521252
     31 O                    -0.622866
     32 O                    -0.643171
     33 H                     0.296388
  ----------------------------------------
  Sum of atomic charges =    -0.000000

                    Cartesian Multipole Moments
 -----------------------------------------------------------------
    Charge (ESU x 10^10)
                -0.0000
    Dipole Moment (Debye)
         X       8.7429      Y      -3.3832      Z      -2.6813
       Tot       9.7506
    Quadrupole Moments (Debye-Ang)
        XX    -124.0851     XY     -15.6272     YY    -122.7127
        XZ       5.5676     YZ       2.7996     ZZ    -129.6465

 Total job time:  170928.37s(wall), 595484.38s(cpu)
        *  Thank you very much for using Q-Chem.  Have a nice day.  *
