 Gaussian 09, Revision E.01,

 ----------------------------------------------------------------------
 # M062X/6-311+G* SCF=Tight INT(grid=ultrafine) OPT IOP(2/17=4) Empiric
 alDispersion=GD3 maxdisk=2684354560
 ----------------------------------------------------------------------

 ---------------------------
 CP21.M062X_6-311pGd_opt_GD3
 ---------------------------
 Symbolic Z-matrix:
 Charge =  0 Multiplicity = 1

 SCF Done:  E(RM062X) =  -1459.73505193     A.U. after   16 cycles
 Optimization completed.
    -- Stationary point found.
 Normal termination of Gaussian 09 at Thu Nov 14 09:35:36 2019.
 Gaussian 09:  ES64L-G09RevE.01 30-Nov-2015

 ----------------------------------------------------------------------
 # M062X/6-311+G* SCF=Tight INT(grid=ultrafine) EmpiricalDispersion=GD3
  Freq=Noraman maxdisk=2684354560 geom=check guess=read IOP(2/17=4)
 ----------------------------------------------------------------------

 ---------------------------
 CP21.M062X_6-311pGd_opt_GD3
 ---------------------------
 Structure from the checkpoint file:  "CP21.M062X_6-311pGd_opt_GD3.chk"
 Charge =  0 Multiplicity = 1

                         Standard orientation:
 ---------------------------------------------------------------------
 Center     Atomic      Atomic             Coordinates (Angstroms)
 Number     Number       Type             X           Y           Z
 ---------------------------------------------------------------------
      1          6           0        0.919378    0.623723   -0.075535
      2          7           0        2.282153    0.808804    0.143034
      3          6           0        3.312255   -0.103084   -0.095098
      4          8           0        3.132667   -1.235924   -0.481205
      5          7           0        4.552880    0.406523    0.186077
      6          6           0        5.731804   -0.399281   -0.108239
      7          6           0        6.977488    0.246923    0.479613
      8          6           0        8.225503   -0.581743    0.191993
      9          6           0        0.388366   -0.486841   -0.748781
     10          6           0       -0.980601   -0.574616   -0.943309
     11          6           0       -1.815860    0.431989   -0.469642
     12          6           0       -1.306019    1.541342    0.199858
     13          6           0        0.058030    1.630487    0.392509
     14          1           0        2.527685    1.643830    0.653698
     15          1           0        4.676427    1.408513    0.165936
     16          1           0        5.842691   -0.538549   -1.189988
     17          1           0        5.571315   -1.388149    0.324201
     18          1           0        6.841640    0.366684    1.558532
     19          1           0        7.101977    1.253025    0.061683
     20          1           0        8.138094   -1.583137    0.619814
     21          1           0        9.115873   -0.115403    0.615934
     22          1           0        8.387009   -0.692542   -0.882861
     23          1           0        1.043061   -1.264592   -1.108727
     24          6           0       -4.061462   -0.652882    0.840105
     25          1           0       -1.973287    2.320174    0.550045
     26          1           0        0.469610    2.493132    0.906763
     27          9           0       -3.727981    0.033931    1.925609
     28          9           0       -5.369795   -0.836101    0.821999
     29          9           0       -3.451435   -1.829998    0.871361
     30         16           0       -3.554721    0.289021   -0.690019
     31          8           0       -3.841595   -0.602477   -1.793282
     32          8           0       -4.173365    1.590845   -0.552706
     33          1           0       -1.403847   -1.420750   -1.472512
 ---------------------------------------------------------------------

 SCF Done:  E(RM062X) =  -1459.73505193     A.U. after    2 cycles

 The electronic state is 1-A.
 Alpha  occ. eigenvalues --  -90.12228 -25.30650 -25.30618 -25.30533 -19.64050
 Alpha  occ. eigenvalues --  -19.64029 -19.61334 -14.81547 -14.79257 -10.82955
 Alpha  occ. eigenvalues --  -10.70059 -10.63353 -10.59539 -10.58901 -10.58796
 Alpha  occ. eigenvalues --  -10.58455 -10.57908 -10.56763 -10.55866 -10.54350
 Alpha  occ. eigenvalues --   -8.46621  -6.38814  -6.38770  -6.38712  -1.50299
 Alpha  occ. eigenvalues --   -1.40855  -1.40808  -1.26185  -1.20810  -1.15517
 Alpha  occ. eigenvalues --   -1.09124  -1.05605  -0.99681  -0.91311  -0.89565
 Alpha  occ. eigenvalues --   -0.88481  -0.86210  -0.81077  -0.78321  -0.74988
 Alpha  occ. eigenvalues --   -0.74045  -0.72428  -0.72333  -0.70982  -0.69873
 Alpha  occ. eigenvalues --   -0.67701  -0.66148  -0.64335  -0.61398  -0.60139
 Alpha  occ. eigenvalues --   -0.59682  -0.58307  -0.56997  -0.56287  -0.56201
 Alpha  occ. eigenvalues --   -0.56038  -0.55971  -0.54878  -0.54428  -0.54078
 Alpha  occ. eigenvalues --   -0.53953  -0.53279  -0.51947  -0.50082  -0.49695
 Alpha  occ. eigenvalues --   -0.48715  -0.47190  -0.44717  -0.44487  -0.42901
 Alpha  occ. eigenvalues --   -0.42644  -0.42600  -0.42060  -0.41000  -0.40458
 Alpha  occ. eigenvalues --   -0.38124  -0.37120  -0.34855  -0.34300  -0.30547
 Alpha virt. eigenvalues --   -0.03289  -0.01992  -0.01065   0.00604   0.01371
 Alpha virt. eigenvalues --    0.01851   0.02434   0.02718   0.03513   0.03899
 Alpha virt. eigenvalues --    0.04113   0.04400   0.05224   0.05612   0.05852

 Mulliken charges:
               1
     1  C   -0.219444
     2  N   -0.343098
     3  C    0.119203
     4  O   -0.324068
     5  N   -0.282575
     6  C   -0.535686
     7  C   -0.119339
     8  C   -1.017576
     9  C   -0.130425
    10  C   -0.191938
    11  C   -0.223143
    12  C   -0.360339
    13  C   -0.567156
    14  H    0.337101
    15  H    0.324776
    16  H    0.264755
    17  H    0.271763
    18  H    0.263464
    19  H    0.233732
    20  H    0.262546
    21  H    0.270725
    22  H    0.260942
    23  H    0.308539
    24  C    0.029003
    25  H    0.303724
    26  H    0.236595
    27  F   -0.035986
    28  F   -0.061328
    29  F   -0.031091
    30  S    0.756912
    31  O   -0.045195
    32  O   -0.060129
    33  H    0.304737
 Sum of Mulliken charges =   0.00000

 Dipole moment (field-independent basis, Debye):
    X=              8.7759    Y=              3.1977    Z=              2.5058  Tot=              9.6706
 Quadrupole moment (field-independent basis, Debye-Ang):
   XX=           -120.3559   YY=           -121.7159   ZZ=           -128.6598
   XY=             14.5769   XZ=             -4.9432   YZ=              2.8177

  Exact polarizability: 261.748  -2.466 149.711   7.869  16.293 124.539
 Approx polarizability: 247.703  -1.903 211.585   9.663  31.047 166.835

                      1                      2                      3
                      A                      A                      A
 Frequencies --     15.5387                26.0451                38.0102
 Red. masses --      5.6086                 4.1489                 6.5461
 Frc consts  --      0.0008                 0.0017                 0.0056
 IR Inten    --      0.4174                 5.1900                 0.0144

                      4                      5                      6
                      A                      A                      A
 Frequencies --     42.7200                48.4983                57.3762
 Red. masses --      6.7472                 4.1172                 3.8560
 Frc consts  --      0.0073                 0.0057                 0.0075
 IR Inten    --      0.8092                 1.1335                 1.0637

                      7                      8                      9
                      A                      A                      A
 Frequencies --     64.3910                82.0016               131.9128
 Red. masses --      4.1901                 2.9803                 6.2536
 Frc consts  --      0.0102                 0.0118                 0.0641
 IR Inten    --      2.6006                 1.2547                 5.8461

                     10                     11                     12
                      A                      A                      A
 Frequencies --    149.2752               186.7582               190.3708
 Red. masses --      6.0969                 8.3028                 3.1009
 Frc consts  --      0.0800                 0.1706                 0.0662
 IR Inten    --      3.3188                 1.8985                 2.7176

                     13                     14                     15
                      A                      A                      A
 Frequencies --    198.8912               215.8054               240.8888
 Red. masses --     11.3972                 4.5307                 1.1302
 Frc consts  --      0.2656                 0.1243                 0.0386
 IR Inten    --      1.2092                 6.8335                 0.0919

                     16                     17                     18
                      A                      A                      A
 Frequencies --    251.3705               305.9404               309.5457
 Red. masses --      8.7260                 8.2315                10.5953
 Frc consts  --      0.3249                 0.4539                 0.5982
 IR Inten    --     10.1249                 0.2494                 1.5978

                     19                     20                     21
                      A                      A                      A
 Frequencies --    329.5356               335.9503               348.7348
 Red. masses --      5.7649                 2.2116                 4.1803
 Frc consts  --      0.3688                 0.1471                 0.2995
 IR Inten    --      1.3170                72.5497                 8.8500

                     22                     23                     24
                      A                      A                      A
 Frequencies --    364.3779               376.7868               418.5978
 Red. masses --      3.0180                 5.6759                 3.0260
 Frc consts  --      0.2361                 0.4748                 0.3124
 IR Inten    --     23.5531                 6.2023                 0.1196

                     25                     26                     27
                      A                      A                      A
 Frequencies --    448.6526               484.7741               506.1157
 Red. masses --      8.0409                 3.3939                 1.3952
 Frc consts  --      0.9536                 0.4699                 0.2106
 IR Inten    --      1.8817                29.2278               131.0890

                     28                     29                     30
                      A                      A                      A
 Frequencies --    515.6681               533.3739               565.5661
 Red. masses --      3.0605                 9.1915                17.3131
 Frc consts  --      0.4795                 1.5406                 3.2628
 IR Inten    --      7.4167                15.4037                 0.0243

                     31                     32                     33
                      A                      A                      A
 Frequencies --    582.1475               615.0977               639.4268
 Red. masses --      8.2846                 8.7133                 7.0342
 Frc consts  --      1.6542                 1.9423                 1.6945
 IR Inten    --     60.4488               181.0222                 1.0686

                     34                     35                     36
                      A                      A                      A
 Frequencies --    713.8110               730.2401               755.5498
 Red. masses --      6.4997                 3.9749                 1.2210
 Frc consts  --      1.9512                 1.2489                 0.4107
 IR Inten    --    114.6766                11.1458                 9.2347

                     37                     38                     39
                      A                      A                      A
 Frequencies --    773.5616               784.6918               797.0954
 Red. masses --      4.3778                14.0033                 6.1207
 Frc consts  --      1.5435                 5.0802                 2.2913
 IR Inten    --      8.8057                 9.2301                15.8421

                     40                     41                     42
                      A                      A                      A
 Frequencies --    838.4592               867.5652               871.6949
 Red. masses --      1.4376                 1.4852                 4.6416
 Frc consts  --      0.5954                 0.6586                 2.0780
 IR Inten    --     20.3835                22.1895                 6.9356

                     43                     44                     45
                      A                      A                      A
 Frequencies --    902.1111               932.6501               980.3243
 Red. masses --      1.1871                 1.7170                 1.3205
 Frc consts  --      0.5692                 0.8799                 0.7477
 IR Inten    --      2.3850                 5.2772                 0.6366

                     46                     47                     48
                      A                      A                      A
 Frequencies --   1008.0622              1027.2111              1043.2651
 Red. masses --      1.3320                 3.6891                 4.1345
 Frc consts  --      0.7975                 2.2934                 2.6513
 IR Inten    --      0.8094                 9.3062                 4.3660

                     49                     50                     51
                      A                      A                      A
 Frequencies --   1074.9811              1102.7919              1140.3641
 Red. masses --      2.6988                 4.3057                 2.8838
 Frc consts  --      1.8374                 3.0852                 2.2095
 IR Inten    --      5.0841               124.5423                 4.7107

                     52                     53                     54
                      A                      A                      A
 Frequencies --   1157.0802              1162.9260              1165.2698
 Red. masses --      3.0293                 1.5197                 2.6273
 Frc consts  --      2.3896                 1.2109                 2.1019
 IR Inten    --    290.3388                88.6551                 7.4815

                     55                     56                     57
                      A                      A                      A
 Frequencies --   1181.9364              1213.4305              1231.7804
 Red. masses --      1.6878                 1.7760                 2.7184
 Frc consts  --      1.3892                 1.5407                 2.4301
 IR Inten    --      0.4711               313.1272               133.5598

                     58                     59                     60
                      A                      A                      A
 Frequencies --   1235.6441              1261.1904              1279.1652
 Red. masses --      1.9318                13.0469                12.5130
 Frc consts  --      1.7378                12.2270                12.0633
 IR Inten    --    174.0519               146.4108               357.5843

                     61                     62                     63
                      A                      A                      A
 Frequencies --   1286.0208              1300.4188              1334.0805
 Red. masses --      1.3578                 2.3647                 1.1743
 Frc consts  --      1.3231                 2.3561                 1.2313
 IR Inten    --     47.1203                 5.3423                17.6683

                     64                     65                     66
                      A                      A                      A
 Frequencies --   1339.2663              1347.4404              1356.0317
 Red. masses --      1.3966                 1.3431                 4.6748
 Frc consts  --      1.4759                 1.4367                 5.0647
 IR Inten    --      6.9512                 0.7507               163.1389

                     67                     68                     69
                      A                      A                      A
 Frequencies --   1379.5253              1424.3150              1432.8694
 Red. masses --     13.3871                 1.5380                 1.2892
 Frc consts  --     15.0106                 1.8384                 1.5595
 IR Inten    --    264.8099                 0.2968                 2.4477

                     70                     71                     72
                      A                      A                      A
 Frequencies --   1454.1339              1509.8688              1522.9055
 Red. masses --      2.8488                 1.0610                 1.0431
 Frc consts  --      3.5492                 1.4251                 1.4253
 IR Inten    --     71.8467                 7.1618                16.9573

                     73                     74                     75
                      A                      A                      A
 Frequencies --   1524.2669              1535.2647              1541.8873
 Red. masses --      1.0694                 1.3185                 1.4056
 Frc consts  --      1.4639                 1.8310                 1.9688
 IR Inten    --      2.3751                71.5889               172.3814

                     76                     77                     78
                      A                      A                      A
 Frequencies --   1554.9981              1578.2274              1657.3675
 Red. masses --      2.1743                 2.4150                 4.6937
 Frc consts  --      3.0977                 3.5441                 7.5964
 IR Inten    --    112.2094               956.1606               132.0220

                     79                     80                     81
                      A                      A                      A
 Frequencies --   1671.8379              1825.8664              3052.9877
 Red. masses --      5.4777                 8.6595                 1.0639
 Frc consts  --      9.0206                17.0091                 5.8428
 IR Inten    --     87.2493               283.9549                17.5949

                     82                     83                     84
                      A                      A                      A
 Frequencies --   3057.0771              3072.7144              3099.2244
 Red. masses --      1.0721                 1.0370                 1.0955
 Frc consts  --      5.9035                 5.7685                 6.1997
 IR Inten    --     30.2441                28.5201                13.3099

                     85                     86                     87
                      A                      A                      A
 Frequencies --   3134.0434              3143.7364              3150.1154
 Red. masses --      1.0976                 1.1024                 1.1021
 Frc consts  --      6.3518                 6.4192                 6.4437
 IR Inten    --      0.8716                45.2162                25.3542

                     88                     89                     90
                      A                      A                      A
 Frequencies --   3202.7755              3231.9113              3236.0309
 Red. masses --      1.0902                 1.0920                 1.0942
 Frc consts  --      6.5890                 6.7201                 6.7513
 IR Inten    --      9.0632                 1.5819                 2.7701

                     91                     92                     93
                      A                      A                      A
 Frequencies --   3289.6887              3636.6944              3649.0401
 Red. masses --      1.0931                 1.0773                 1.0767
 Frc consts  --      6.9699                 8.3945                 8.4471
 IR Inten    --      9.8251                17.9908                38.7111

 - Thermochemistry -
 -------------------
 Temperature   298.150 Kelvin.  Pressure   1.00000 Atm.
 Atom     1 has atomic number  6 and mass  12.00000

 Molecular mass:   310.05990 amu.
 Principal axes and moments of inertia in atomic units:
                           1         2         3
     Eigenvalues --  1761.30140********************
           X            0.99998  -0.00521   0.00445
           Y            0.00432   0.98344   0.18118
           Z           -0.00532  -0.18115   0.98344
 This molecule is an asymmetric top.
 Rotational symmetry number  1.
 Warning -- assumption of classical behavior for rotation
           may cause significant error
 Rotational temperatures (Kelvin)      0.04918     0.00457     0.00452
 Rotational constants (GHZ):           1.02466     0.09530     0.09423
 Zero-point vibrational energy     648290.0 (Joules/Mol)
                                  154.94504 (Kcal/Mol)
 Warning -- explicit consideration of  32 degrees of freedom as
           vibrations may cause significant error
 Vibrational temperatures:     22.36    37.47    54.69    61.46    69.78
          (Kelvin)             82.55    92.64   117.98   189.79   214.77
                              268.70   273.90   286.16   310.50   346.58
                              361.67   440.18   445.37   474.13   483.36
                              501.75   524.26   542.11   602.27   645.51
                              697.48   728.19   741.93   767.41   813.72
                              837.58   884.99   919.99  1027.01  1050.65
                             1087.07  1112.98  1129.00  1146.84  1206.35
                             1248.23  1254.17  1297.94  1341.87  1410.47
                             1450.37  1477.93  1501.02  1546.66  1586.67
                             1640.73  1664.78  1673.19  1676.56  1700.54
                             1745.85  1772.25  1777.81  1814.57  1840.43
                             1850.29  1871.01  1919.44  1926.90  1938.66
                             1951.02  1984.83  2049.27  2061.58  2092.17
                             2172.36  2191.12  2193.08  2208.90  2218.43
                             2237.29  2270.71  2384.58  2405.40  2627.01
                             4392.56  4398.45  4420.95  4459.09  4509.18
                             4523.13  4532.31  4608.07  4649.99  4655.92
                             4733.12  5232.39  5250.15

 Zero-point correction=                           0.246921 (Hartree/Particle)
 Thermal correction to Energy=                    0.267065
 Thermal correction to Enthalpy=                  0.268009
 Thermal correction to Gibbs Free Energy=         0.194367
 Sum of electronic and zero-point Energies=          -1459.488131
 Sum of electronic and thermal Energies=             -1459.467987
 Sum of electronic and thermal Enthalpies=           -1459.467043
 Sum of electronic and thermal Free Energies=        -1459.540684

                     E (Thermal)             CV                S
                      KCal/Mol        Cal/Mol-Kelvin    Cal/Mol-Kelvin
 Total                  167.586             72.334            154.992
 Electronic               0.000              0.000              0.000
 Translational            0.889              2.981             43.091
 Rotational               0.889              2.981             34.812
 Vibrational            165.808             66.372             77.089
 Vibration     1          0.593              1.986              7.135
 Vibration     2          0.593              1.985              6.110
 Vibration     3          0.594              1.982              5.360
 Vibration     4          0.595              1.980              5.129
 Vibration     5          0.595              1.978              4.878
 Vibration     6          0.596              1.975              4.545
 Vibration     7          0.597              1.971              4.318
 Vibration     8          0.600              1.961              3.842
 Vibration     9          0.612              1.921              2.918
 Vibration    10          0.618              1.903              2.681
 Vibration    11          0.632              1.858              2.260
 Vibration    12          0.634              1.853              2.224
 Vibration    13          0.637              1.841              2.143
 Vibration    14          0.645              1.817              1.994
 Vibration    15          0.658              1.778              1.796
 Vibration    16          0.663              1.760              1.721
 Vibration    17          0.696              1.662              1.384
 Vibration    18          0.699              1.656              1.365
 Vibration    19          0.712              1.617              1.262
 Vibration    20          0.717              1.604              1.231
 Vibration    21          0.726              1.578              1.172
 Vibration    22          0.738              1.546              1.103
 Vibration    23          0.747              1.520              1.052
 Vibration    24          0.781              1.430              0.897
 Vibration    25          0.808              1.364              0.800
 Vibration    26          0.841              1.284              0.697
 Vibration    27          0.861              1.236              0.643
 Vibration    28          0.871              1.215              0.620
 Vibration    29          0.888              1.176              0.580
 Vibration    30          0.921              1.106              0.513
 Vibration    31          0.939              1.070              0.481
 Vibration    32          0.975              1.000              0.424

 Optimization completed.
    -- Stationary point found.
 Normal termination of Gaussian 09 at Thu Nov 14 11:10:24 2019.
