 Gaussian 09, Revision E.01,
 Gaussian 09:  ES64L-G09RevE.01 30-Nov-2015

 -------------------------------------------------------------
 # MP2/Gen 5D SCF=Tight INT(grid=ultrafine) maxdisk=3489660928
 -------------------------------------------------------------

 -------------------
 CP21.MP2_GTMP2LARGE
 -------------------
 Symbolic Z-matrix:
 Charge =  0 Multiplicity = 1

                         Standard orientation:
 ---------------------------------------------------------------------
 Center     Atomic      Atomic             Coordinates (Angstroms)
 Number     Number       Type             X           Y           Z
 ---------------------------------------------------------------------
      1          6           0        0.919378    0.623723   -0.075535
      2          7           0        2.282153    0.808804    0.143034
      3          6           0        3.312255   -0.103084   -0.095098
      4          8           0        3.132667   -1.235924   -0.481205
      5          7           0        4.552880    0.406523    0.186077
      6          6           0        5.731804   -0.399281   -0.108239
      7          6           0        6.977488    0.246923    0.479613
      8          6           0        8.225503   -0.581743    0.191993
      9          6           0        0.388366   -0.486841   -0.748781
     10          6           0       -0.980601   -0.574616   -0.943309
     11          6           0       -1.815860    0.431989   -0.469642
     12          6           0       -1.306019    1.541342    0.199858
     13          6           0        0.058030    1.630487    0.392509
     14          1           0        2.527685    1.643830    0.653698
     15          1           0        4.676427    1.408513    0.165936
     16          1           0        5.842691   -0.538549   -1.189988
     17          1           0        5.571315   -1.388149    0.324201
     18          1           0        6.841640    0.366684    1.558532
     19          1           0        7.101977    1.253025    0.061683
     20          1           0        8.138094   -1.583137    0.619814
     21          1           0        9.115873   -0.115403    0.615934
     22          1           0        8.387009   -0.692542   -0.882861
     23          1           0        1.043061   -1.264592   -1.108727
     24          6           0       -4.061462   -0.652882    0.840105
     25          1           0       -1.973287    2.320174    0.550045
     26          1           0        0.469610    2.493132    0.906763
     27          9           0       -3.727981    0.033931    1.925609
     28          9           0       -5.369795   -0.836101    0.821999
     29          9           0       -3.451435   -1.829998    0.871361
     30         16           0       -3.554721    0.289021   -0.690019
     31          8           0       -3.841595   -0.602477   -1.793282
     32          8           0       -4.173365    1.590845   -0.552706
     33          1           0       -1.403847   -1.420750   -1.472512
 ---------------------------------------------------------------------

 SCF Done:  E(RHF) =  -1453.81327003     A.U. after   17 cycles
 E2 =    -0.3789871314D+01 EUMP2 =    -0.14576031413423D+04

 The electronic state is 1-A.
 Alpha  occ. eigenvalues --  -92.19346 -26.36591 -26.36555 -26.36351 -20.56945
 Alpha  occ. eigenvalues --  -20.56908 -20.53972 -15.62754 -15.60180 -11.53736
 Alpha  occ. eigenvalues --  -11.40476 -11.32991 -11.28196 -11.27959 -11.27797
 Alpha  occ. eigenvalues --  -11.27474 -11.26307 -11.25094 -11.24337 -11.22995
 Alpha  occ. eigenvalues --   -9.16409  -6.85025  -6.84951  -6.84915  -1.76115
 Alpha  occ. eigenvalues --   -1.66412  -1.66367  -1.47009  -1.42780  -1.36177
 Alpha  occ. eigenvalues --   -1.29246  -1.24995  -1.18454  -1.08258  -1.06263
 Alpha  occ. eigenvalues --   -1.05621  -1.02013  -0.95715  -0.92506  -0.88532
 Alpha  occ. eigenvalues --   -0.87323  -0.85194  -0.85145  -0.83667  -0.82424
 Alpha  occ. eigenvalues --   -0.79909  -0.77176  -0.75287  -0.73657  -0.73394
 Alpha  occ. eigenvalues --   -0.71357  -0.69157  -0.68905  -0.68178  -0.67340
 Alpha  occ. eigenvalues --   -0.67245  -0.66532  -0.65847  -0.65035  -0.64219
 Alpha  occ. eigenvalues --   -0.63568  -0.63238  -0.61867  -0.59300  -0.58576
 Alpha  occ. eigenvalues --   -0.57101  -0.54672  -0.53627  -0.52651  -0.52267
 Alpha  occ. eigenvalues --   -0.51884  -0.50578  -0.50013  -0.49679  -0.47998
 Alpha  occ. eigenvalues --   -0.47013  -0.45931  -0.42268  -0.37433  -0.34544
 Alpha virt. eigenvalues --    0.01967   0.03556   0.04540   0.04839   0.05376
 Alpha virt. eigenvalues --    0.05896   0.06503   0.06875   0.07409   0.08165
 Alpha virt. eigenvalues --    0.08252   0.08882   0.09112   0.09700   0.09933

 Mulliken charges:
               1
     1  C    0.340536
     2  N   -0.278639
     3  C    0.511737
     4  O   -0.511929
     5  N   -0.166223
     6  C   -0.276267
     7  C    0.342847
     8  C   -0.492524
     9  C   -0.327828
    10  C   -0.159196
    11  C   -0.014056
    12  C   -0.363183
    13  C   -0.345953
    14  H    0.199506
    15  H    0.183362
    16  H    0.106829
    17  H    0.102328
    18  H    0.064670
    19  H    0.016538
    20  H    0.063537
    21  H    0.084397
    22  H    0.058902
    23  H    0.239451
    24  C    0.805714
    25  H    0.233952
    26  H    0.115797
    27  F   -0.255471
    28  F   -0.270822
    29  F   -0.253997
    30  S    1.234042
    31  O   -0.609831
    32  O   -0.608735
    33  H    0.230510
 Sum of Mulliken charges =  -0.00000

 Dipole moment (field-independent basis, Debye):
    X=              8.8194    Y=              3.3131    Z=              2.5964  Tot=              9.7724
 Quadrupole moment (field-independent basis, Debye-Ang):
   XX=           -122.8836   YY=           -121.7667   ZZ=           -128.4166
   XY=             15.0475   XZ=             -5.2219   YZ=              2.7370

 Normal termination of Gaussian 09 at Sat Nov 30 16:31:01 2019.
