 Gaussian 09, Revision E.01,

 ----------------------------------------------------------------------
 # M062X/6-311+G* SCF=Tight INT(grid=ultrafine) OPT IOP(2/17=4) Empiric
 alDispersion=GD3 SCRF=(SMD,Solvent=h2o) maxdisk=2684354560
 ----------------------------------------------------------------------

 ---------------------------------
 CP21.M062X_6-311pGd_opt_water_GD3
 ---------------------------------
 Symbolic Z-matrix:
 Charge =  0 Multiplicity = 1

 SCF Done:  E(RM062X) =  -1459.76352300     A.U. after   15 cycles
 Optimization completed.
    -- Stationary point found.
 Normal termination of Gaussian 09 at Thu Nov 14 09:35:42 2019.
 Gaussian 09:  ES64L-G09RevE.01 30-Nov-2015

 ----------------------------------------------------------------------
 # M062X/6-311+G* SCF=Tight INT(grid=ultrafine) SCRF=(SMD,Solvent=h2o)E
 mpiricalDispersion=GD3 Freq=Noraman maxdisk=2684354560 geom=check gues
 s=read IOP(2/17=4)
 ----------------------------------------------------------------------

 ---------------------------------
 CP21.M062X_6-311pGd_opt_water_GD3
 ---------------------------------
 Structure from the checkpoint file:  "CP21.M062X_6-311pGd_opt_water_GD3.chk"
 Charge =  0 Multiplicity = 1

                         Standard orientation:
 ---------------------------------------------------------------------
 Center     Atomic      Atomic             Coordinates (Angstroms)
 Number     Number       Type             X           Y           Z
 ---------------------------------------------------------------------
      1          6           0        0.929086    0.550573   -0.134052
      2          7           0        2.280017    0.747981    0.095505
      3          6           0        3.330419   -0.132613   -0.126705
      4          8           0        3.172600   -1.268917   -0.573259
      5          7           0        4.541278    0.363683    0.186428
      6          6           0        5.746482   -0.442149    0.031812
      7          6           0        6.973522    0.368914    0.412739
      8          6           0        8.244255   -0.459631    0.271084
      9          6           0        0.377692   -0.641881   -0.634489
     10          6           0       -0.988945   -0.738329   -0.829481
     11          6           0       -1.806596    0.350172   -0.532167
     12          6           0       -1.281089    1.542354   -0.027700
     13          6           0        0.079745    1.635257    0.163225
     14          1           0        2.526052    1.657716    0.467417
     15          1           0        4.630143    1.298762    0.561007
     16          1           0        5.823921   -0.779398   -1.005329
     17          1           0        5.672114   -1.333807    0.661280
     18          1           0        6.867884    0.720608    1.443833
     19          1           0        7.030404    1.256615   -0.224765
     20          1           0        8.214697   -1.337969    0.920937
     21          1           0        9.126195    0.124888    0.539174
     22          1           0        8.373209   -0.807843   -0.756936
     23          1           0        1.008172   -1.483091   -0.870464
     24          6           0       -4.083971   -0.494090    0.928048
     25          1           0       -1.924434    2.383327    0.202334
     26          1           0        0.506265    2.556165    0.544664
     27          9           0       -3.760188    0.345776    1.897683
     28          9           0       -5.397191   -0.653739    0.901635
     29          9           0       -3.501769   -1.662391    1.143826
     30         16           0       -3.532010    0.192910   -0.716599
     31          8           0       -3.863415   -0.851164   -1.675460
     32          8           0       -4.168069    1.499484   -0.800728
     33          1           0       -1.411707   -1.657698   -1.217693
 ---------------------------------------------------------------------

 SCF Done:  E(RM062X) =  -1459.76352300     A.U. after    2 cycles

 The electronic state is 1-A.
 Alpha  occ. eigenvalues --  -90.13745 -25.31616 -25.31610 -25.31602 -19.65742
 Alpha  occ. eigenvalues --  -19.65726 -19.60368 -14.79714 -14.77402 -10.84167
 Alpha  occ. eigenvalues --  -10.68979 -10.62385 -10.59475 -10.57922 -10.57918
 Alpha  occ. eigenvalues --  -10.56753 -10.56269 -10.55868 -10.53095 -10.51767
 Alpha  occ. eigenvalues --   -8.48155  -6.40367  -6.40295  -6.40218  -1.51352
 Alpha  occ. eigenvalues --   -1.41900  -1.41890  -1.27616  -1.19260  -1.16892
 Alpha  occ. eigenvalues --   -1.07541  -1.03940  -0.99029  -0.90830  -0.88331
 Alpha  occ. eigenvalues --   -0.87564  -0.86315  -0.80611  -0.77731  -0.74362
 Alpha  occ. eigenvalues --   -0.73587  -0.73507  -0.73077  -0.69025  -0.68861
 Alpha  occ. eigenvalues --   -0.67189  -0.64284  -0.63612  -0.61855  -0.61141
 Alpha  occ. eigenvalues --   -0.60505  -0.58148  -0.57454  -0.57141  -0.56919
 Alpha  occ. eigenvalues --   -0.56323  -0.55027  -0.54960  -0.54249  -0.53404
 Alpha  occ. eigenvalues --   -0.52832  -0.52121  -0.50763  -0.49153  -0.48165
 Alpha  occ. eigenvalues --   -0.46864  -0.45625  -0.44544  -0.44395  -0.43332
 Alpha  occ. eigenvalues --   -0.42188  -0.42137  -0.40635  -0.40048  -0.39464
 Alpha  occ. eigenvalues --   -0.39188  -0.36521  -0.33765  -0.33334  -0.29156
 Alpha virt. eigenvalues --   -0.03283  -0.00123   0.00940   0.02056   0.02755
 Alpha virt. eigenvalues --    0.03027   0.03164   0.03621   0.04129   0.04343
 Alpha virt. eigenvalues --    0.04802   0.05124   0.05909   0.06354   0.07066

 Mulliken charges:
               1
     1  C   -0.425736
     2  N   -0.375754
     3  C    0.272558
     4  O   -0.516435
     5  N   -0.391183
     6  C   -0.556831
     7  C   -0.135743
     8  C   -1.059202
     9  C   -0.163803
    10  C   -0.287624
    11  C   -0.011155
    12  C   -0.247138
    13  C   -0.529089
    14  H    0.450602
    15  H    0.451329
    16  H    0.278030
    17  H    0.280188
    18  H    0.267054
    19  H    0.269002
    20  H    0.270037
    21  H    0.280657
    22  H    0.269687
    23  H    0.328360
    24  C    0.039620
    25  H    0.334848
    26  H    0.304761
    27  F   -0.034245
    28  F   -0.068686
    29  F   -0.034429
    30  S    0.797761
    31  O   -0.193619
    32  O   -0.197539
    33  H    0.333715
 Sum of Mulliken charges =  -0.00000

 Dipole moment (field-independent basis, Debye):
    X=             11.9142    Y=              5.8249    Z=              5.1214  Tot=             14.2164
 Quadrupole moment (field-independent basis, Debye-Ang):
   XX=           -123.6037   YY=           -120.1209   ZZ=           -130.3972
   XY=             22.0189   XZ=             -3.2824   YZ=              2.6748

  Exact polarizability: 339.838  -2.355 233.353  15.808  24.595 176.118
 Approx polarizability: 259.672  -0.943 213.215  12.971  23.787 159.305

                      1                      2                      3
                      A                      A                      A
 Frequencies --      4.0079                18.5217                37.1973
 Red. masses --      4.6608                 5.5130                 6.4230
 Frc consts  --      0.0000                 0.0011                 0.0052
 IR Inten    --     24.5668                 2.2678                 3.3290

                      4                      5                      6
                      A                      A                      A
 Frequencies --     38.8090                45.0268                53.8267
 Red. masses --      4.5071                 4.6944                 2.4025
 Frc consts  --      0.0040                 0.0056                 0.0041
 IR Inten    --      6.3404                 0.5275                22.0066

                      7                      8                      9
                      A                      A                      A
 Frequencies --     59.5626                69.4658               134.4913
 Red. masses --      5.2698                 6.4675                 6.2094
 Frc consts  --      0.0110                 0.0184                 0.0662
 IR Inten    --      0.8872                 0.1032                 5.7927

                     10                     11                     12
                      A                      A                      A
 Frequencies --    142.8728               153.8737               187.8406
 Red. masses --      3.2016                 5.1890                 8.9918
 Frc consts  --      0.0385                 0.0724                 0.1869
 IR Inten    --     13.3864                 9.7716                 7.0859

                     13                     14                     15
                      A                      A                      A
 Frequencies --    198.0885               219.5945               248.8552
 Red. masses --     12.8921                 5.2470                 1.4102
 Frc consts  --      0.2981                 0.1491                 0.0515
 IR Inten    --      4.4079                 6.9229                 6.4379

                     16                     17                     18
                      A                      A                      A
 Frequencies --    250.8021               308.3256               309.4420
 Red. masses --      3.5105                 9.5510                 9.8761
 Frc consts  --      0.1301                 0.5350                 0.5572
 IR Inten    --     13.1501                 1.7051                 0.4392

                     19                     20                     21
                      A                      A                      A
 Frequencies --    329.1124               333.3407               347.8296
 Red. masses --      6.1882                 1.1173                 5.0322
 Frc consts  --      0.3949                 0.0732                 0.3587
 IR Inten    --      6.6022                76.5849                28.9248

                     22                     23                     24
                      A                      A                      A
 Frequencies --    353.5801               375.3370               417.5649
 Red. masses --      8.2350                 7.8553                 2.9899
 Frc consts  --      0.6066                 0.6520                 0.3072
 IR Inten    --      4.6563                19.5376                 0.8573

                     25                     26                     27
                      A                      A                      A
 Frequencies --    446.0606               477.0128               509.4374
 Red. masses --      8.0706                 5.2436                 2.8750
 Frc consts  --      0.9461                 0.7030                 0.4396
 IR Inten    --      8.0386                62.6612                29.2170

                     28                     29                     30
                      A                      A                      A
 Frequencies --    526.5979               546.3283               563.9790
 Red. masses --      9.6694                 1.2322                17.2081
 Frc consts  --      1.5798                 0.2167                 3.2248
 IR Inten    --     59.9843               211.9879                 0.3573

                     31                     32                     33
                      A                      A                      A
 Frequencies --    570.4143               600.5607               636.3064
 Red. masses --      8.6512                10.2449                 7.1400
 Frc consts  --      1.6585                 2.1771                 1.7033
 IR Inten    --    128.4008               326.3156                 1.5631

                     34                     35                     36
                      A                      A                      A
 Frequencies --    711.0152               723.2580               758.3382
 Red. masses --      5.8233                 4.2674                 1.1591
 Frc consts  --      1.7345                 1.3152                 0.3927
 IR Inten    --    160.5859                32.3265                17.7305

                     37                     38                     39
                      A                      A                      A
 Frequencies --    778.5712               784.1890               792.4797
 Red. masses --      5.4734                11.2523                 8.7985
 Frc consts  --      1.9548                 4.0769                 3.2556
 IR Inten    --     13.6886                12.2149                16.5610

                     40                     41                     42
                      A                      A                      A
 Frequencies --    840.6695               855.2451               872.6485
 Red. masses --      1.2928                 1.6525                 5.4069
 Frc consts  --      0.5383                 0.7122                 2.4259
 IR Inten    --      9.1680                98.1509                 5.4910

                     43                     44                     45
                      A                      A                      A
 Frequencies --    908.2408               933.0370               987.1098
 Red. masses --      1.1567                 1.6893                 1.2959
 Frc consts  --      0.5622                 0.8665                 0.7440
 IR Inten    --      2.9157                 7.5689                 1.4000

                     46                     47                     48
                      A                      A                      A
 Frequencies --   1005.5645              1018.8323              1048.4812
 Red. masses --      1.3451                 3.8306                 4.2035
 Frc consts  --      0.8014                 2.3427                 2.7226
 IR Inten    --      0.3520                37.4626                20.7739

                     49                     50                     51
                      A                      A                      A
 Frequencies --   1077.4885              1080.9875              1131.6233
 Red. masses --      4.0346                 3.0888                 3.7909
 Frc consts  --      2.7598                 2.1266                 2.8602
 IR Inten    --    151.7690               108.8864               900.4604

                     52                     53                     54
                      A                      A                      A
 Frequencies --   1142.2824              1164.7379              1171.8872
 Red. masses --      2.3887                 1.4138                 3.1515
 Frc consts  --      1.8364                 1.1300                 2.5500
 IR Inten    --     51.5845                37.2307                 1.6506

                     55                     56                     57
                      A                      A                      A
 Frequencies --   1182.2361              1205.7079              1225.0909
 Red. masses --      1.6269                 2.8013                 1.9533
 Frc consts  --      1.3398                 2.3994                 1.7272
 IR Inten    --      0.6671               383.6582                67.5722

                     58                     59                     60
                      A                      A                      A
 Frequencies --   1239.3046              1241.4992              1261.9845
 Red. masses --     12.7211                13.2635                 1.7447
 Frc consts  --     11.5114                12.0448                 1.6371
 IR Inten    --    447.7661               265.3612               576.3377

                     61                     62                     63
                      A                      A                      A
 Frequencies --   1287.0234              1304.8781              1313.5843
 Red. masses --      1.1850                10.6095                 2.8337
 Frc consts  --      1.1565                10.6435                 2.8809
 IR Inten    --      1.4837               514.3821                96.4287

                     64                     65                     66
                      A                      A                      A
 Frequencies --   1336.5309              1340.4064              1349.3702
 Red. masses --      1.0696                 1.4355                 1.4587
 Frc consts  --      1.1257                 1.5196                 1.5649
 IR Inten    --      0.6144                13.7484                35.7518

                     67                     68                     69
                      A                      A                      A
 Frequencies --   1368.7552              1418.2354              1426.8686
 Red. masses --      4.9851                 1.2657                 1.6371
 Frc consts  --      5.5027                 1.4999                 1.9638
 IR Inten    --    439.8622                 3.7227                19.7424

                     70                     71                     72
                      A                      A                      A
 Frequencies --   1456.6330              1485.8071              1503.2564
 Red. masses --      3.1625                 1.0575                 1.0382
 Frc consts  --      3.9535                 1.3755                 1.3823
 IR Inten    --     96.9955                11.8687                14.1014

                     73                     74                     75
                      A                      A                      A
 Frequencies --   1508.8184              1527.7539              1539.6979
 Red. masses --      1.0798                 1.0904                 2.2907
 Frc consts  --      1.4484                 1.4995                 3.1996
 IR Inten    --     14.4632                52.4862               632.2269

                     76                     77                     78
                      A                      A                      A
 Frequencies --   1564.5874              1571.2638              1646.0426
 Red. masses --      2.1577                 2.4228                 5.9506
 Frc consts  --      3.1120                 3.5243                 9.4994
 IR Inten    --    634.3587               862.7811               245.2079

                     79                     80                     81
                      A                      A                      A
 Frequencies --   1667.1771              1711.6309              3068.2756
 Red. masses --      4.0556                 3.7933                 1.0603
 Frc consts  --      6.6415                 6.5476                 5.8815
 IR Inten    --     62.5190               864.0134                 9.0105

                     82                     83                     84
                      A                      A                      A
 Frequencies --   3068.8616              3077.1642              3099.5442
 Red. masses --      1.0371                 1.0585                 1.1035
 Frc consts  --      5.7546                 5.9056                 6.2463
 IR Inten    --     27.5511                92.2396                 0.4642

                     85                     86                     87
                      A                      A                      A
 Frequencies --   3120.0418              3138.2016              3146.1862
 Red. masses --      1.1071                 1.1044                 1.1025
 Frc consts  --      6.3497                 6.4079                 6.4297
 IR Inten    --     34.0091                98.8871                45.9216

                     88                     89                     90
                      A                      A                      A
 Frequencies --   3224.3444              3237.2221              3240.7929
 Red. masses --      1.0909                 1.0926                 1.0959
 Frc consts  --      6.6824                 6.7460                 6.7817
 IR Inten    --      1.8092                 1.7483                 3.7352

                     91                     92                     93
                      A                      A                      A
 Frequencies --   3302.7104              3606.3823              3630.1909
 Red. masses --      1.0927                 1.0789                 1.0794
 Frc consts  --      7.0223                 8.2675                 8.3807
 IR Inten    --     11.1366                64.9022               226.3884

 - Thermochemistry -
 -------------------
 Temperature   298.150 Kelvin.  Pressure   1.00000 Atm.
 Atom     1 has atomic number  6 and mass  12.00000

 Molecular mass:   310.05990 amu.
 Principal axes and moments of inertia in atomic units:
                           1         2         3
     Eigenvalues --  1740.92910********************
           X            0.99997  -0.00426   0.00584
           Y            0.00295   0.97795   0.20881
           Z           -0.00660  -0.20879   0.97794
 This molecule is an asymmetric top.
 Rotational symmetry number  1.
 Warning -- assumption of classical behavior for rotation
           may cause significant error
 Rotational temperatures (Kelvin)      0.04975     0.00455     0.00451
 Rotational constants (GHZ):           1.03665     0.09474     0.09401
 Zero-point vibrational energy     645653.4 (Joules/Mol)
                                  154.31486 (Kcal/Mol)
 Warning -- explicit consideration of  32 degrees of freedom as
           vibrations may cause significant error
 Vibrational temperatures:      5.77    26.65    53.52    55.84    64.78
          (Kelvin)             77.44    85.70    99.95   193.50   205.56
                              221.39   270.26   285.00   315.95   358.05
                              360.85   443.61   445.22   473.52   479.60
                              500.45   508.72   540.03   600.78   641.78
                              686.31   732.97   757.66   786.04   811.44
                              820.70   864.07   915.50  1022.99  1040.61
                             1091.08  1120.19  1128.27  1140.20  1209.53
                             1230.51  1255.54  1306.75  1342.43  1420.23
                             1446.78  1465.87  1508.53  1550.26  1555.30
                             1628.15  1643.49  1675.80  1686.08  1700.97
                             1734.74  1762.63  1783.08  1786.24  1815.71
                             1851.74  1877.43  1889.95  1922.97  1928.54
                             1941.44  1969.33  2040.52  2052.94  2095.77
                             2137.74  2162.85  2170.85  2198.09  2215.28
                             2251.09  2260.70  2368.29  2398.69  2462.65
                             4414.56  4415.40  4427.35  4459.55  4489.04
                             4515.17  4526.65  4639.11  4657.63  4662.77
                             4751.86  5188.77  5223.03

 Zero-point correction=                           0.245916 (Hartree/Particle)
 Thermal correction to Energy=                    0.266249
 Thermal correction to Enthalpy=                  0.267194
 Thermal correction to Gibbs Free Energy=         0.191258
 Sum of electronic and zero-point Energies=          -1459.517607
 Sum of electronic and thermal Energies=             -1459.497274
 Sum of electronic and thermal Enthalpies=           -1459.496329
 Sum of electronic and thermal Free Energies=        -1459.572265

                     E (Thermal)             CV                S
                      KCal/Mol        Cal/Mol-Kelvin    Cal/Mol-Kelvin
 Total                  167.074             72.566            159.820
 Electronic               0.000              0.000              0.000
 Translational            0.889              2.981             43.091
 Rotational               0.889              2.981             34.809
 Vibrational            165.297             66.604             81.920
 Vibration     1          0.593              1.987              9.828
 Vibration     2          0.593              1.986              6.787
 Vibration     3          0.594              1.982              5.403
 Vibration     4          0.594              1.981              5.319
 Vibration     5          0.595              1.979              5.025
 Vibration     6          0.596              1.976              4.672
 Vibration     7          0.597              1.974              4.472
 Vibration     8          0.598              1.969              4.168
 Vibration     9          0.613              1.919              2.881
 Vibration    10          0.616              1.910              2.765
 Vibration    11          0.619              1.898              2.624
 Vibration    12          0.633              1.857              2.249
 Vibration    13          0.637              1.843              2.151
 Vibration    14          0.647              1.811              1.962
 Vibration    15          0.662              1.765              1.739
 Vibration    16          0.663              1.761              1.725
 Vibration    17          0.698              1.658              1.371
 Vibration    18          0.699              1.656              1.365
 Vibration    19          0.712              1.617              1.264
 Vibration    20          0.715              1.609              1.244
 Vibration    21          0.725              1.580              1.176
 Vibration    22          0.730              1.568              1.150
 Vibration    23          0.746              1.523              1.058
 Vibration    24          0.781              1.432              0.900
 Vibration    25          0.805              1.370              0.808
 Vibration    26          0.834              1.301              0.718
 Vibration    27          0.865              1.229              0.635
 Vibration    28          0.882              1.191              0.595
 Vibration    29          0.902              1.148              0.552
 Vibration    30          0.920              1.109              0.516
 Vibration    31          0.927              1.095              0.503
 Vibration    32          0.959              1.031              0.449

 Normal termination of Gaussian 09 at Thu Nov 14 11:10:34 2019.
