 Gaussian 09, Revision E.01,

 ----------------------------------------------------------------------
 # M062X/6-311+G* SCF=Tight INT(grid=ultrafine) OPT IOP(2/17=4) Empiric
 alDispersion=GD3 SCRF=(SMD,Solvent=n-Pentadecane) maxdisk=2684354560
 ----------------------------------------------------------------------

 ---------------------------------------
 CP21.M062X_6-311pGd_opt_Pentadecane_GD3
 ---------------------------------------
 Symbolic Z-matrix:
 Charge =  0 Multiplicity = 1

 SCF Done:  E(RM062X) =  -1459.75292541     A.U. after   16 cycles
 Optimization completed.
    -- Stationary point found.
 Normal termination of Gaussian 09 at Thu Nov 14 09:36:22 2019.
 Gaussian 09:  ES64L-G09RevE.01 30-Nov-2015

 ----------------------------------------------------------------------
 # M062X/6-311+G* SCF=Tight INT(grid=ultrafine) SCRF=(SMD,Solvent=n-Pen
 tadecane)EmpiricalDispersion=GD3 Freq=Noraman maxdisk=2684354560 geom=
 check guess=read IOP(2/17=4)
 ----------------------------------------------------------------------

 ---------------------------------------
 CP21.M062X_6-311pGd_opt_Pentadecane_GD3
 ---------------------------------------
 Structure from the checkpoint file:  "CP21.M062X_6-311pGd_opt_Pentadecane_GD3.chk"
 Charge =  0 Multiplicity = 1

                         Standard orientation:
 ---------------------------------------------------------------------
 Center     Atomic      Atomic             Coordinates (Angstroms)
 Number     Number       Type             X           Y           Z
 ---------------------------------------------------------------------
      1          6           0        0.926411    0.560526   -0.101343
      2          7           0        2.282484    0.758166    0.120827
      3          6           0        3.326991   -0.143886   -0.085465
      4          8           0        3.159669   -1.297769   -0.424873
      5          7           0        4.555716    0.391868    0.157906
      6          6           0        5.758123   -0.394685   -0.085137
      7          6           0        6.980494    0.327039    0.462439
      8          6           0        8.253889   -0.477915    0.229903
      9          6           0        0.387073   -0.620955   -0.635568
     10          6           0       -0.979537   -0.717793   -0.838334
     11          6           0       -1.807694    0.351800   -0.510184
     12          6           0       -1.291178    1.531439    0.023769
     13          6           0        0.069878    1.628559    0.223975
     14          1           0        2.525598    1.650401    0.528094
     15          1           0        4.660323    1.395906    0.196046
     16          1           0        5.876435   -0.590051   -1.156925
     17          1           0        5.633998   -1.361619    0.405927
     18          1           0        6.838675    0.508497    1.532328
     19          1           0        7.072144    1.307653   -0.018915
     20          1           0        8.198270   -1.452441    0.721383
     21          1           0        9.127854    0.043457    0.624348
     22          1           0        8.423557   -0.651965   -0.835667
     23          1           0        1.034189   -1.445750   -0.887930
     24          6           0       -4.095836   -0.508126    0.901152
     25          1           0       -1.948011    2.358610    0.266238
     26          1           0        0.486463    2.544606    0.629942
     27          9           0       -3.772990    0.316131    1.889307
     28          9           0       -5.408493   -0.668388    0.877680
     29          9           0       -3.514320   -1.680864    1.110176
     30         16           0       -3.541288    0.202478   -0.733120
     31          8           0       -3.837880   -0.829768   -1.705781
     32          8           0       -4.152241    1.515998   -0.790854
     33          1           0       -1.402125   -1.622801   -1.259731
 ---------------------------------------------------------------------

 SCF Done:  E(RM062X) =  -1459.75292541     A.U. after    2 cycles

 The electronic state is 1-A.
 Alpha  occ. eigenvalues --  -90.12407 -25.30840 -25.30808 -25.30747 -19.64257
 Alpha  occ. eigenvalues --  -19.64245 -19.60374 -14.80564 -14.78184 -10.83134
 Alpha  occ. eigenvalues --  -10.69168 -10.62752 -10.59232 -10.58265 -10.58001
 Alpha  occ. eigenvalues --  -10.57768 -10.57108 -10.56140 -10.54595 -10.53093
 Alpha  occ. eigenvalues --   -8.46801  -6.38998  -6.38951  -6.38883  -1.50493
 Alpha  occ. eigenvalues --   -1.41036  -1.41013  -1.26335  -1.19775  -1.15638
 Alpha  occ. eigenvalues --   -1.08202  -1.04616  -0.99143  -0.90628  -0.88871
 Alpha  occ. eigenvalues --   -0.87901  -0.86074  -0.80508  -0.77882  -0.74370
 Alpha  occ. eigenvalues --   -0.73670  -0.72638  -0.72442  -0.69867  -0.69179
 Alpha  occ. eigenvalues --   -0.67317  -0.65151  -0.63675  -0.61349  -0.60340
 Alpha  occ. eigenvalues --   -0.59773  -0.57238  -0.56954  -0.56374  -0.56324
 Alpha  occ. eigenvalues --   -0.55976  -0.55203  -0.54252  -0.54174  -0.53738
 Alpha  occ. eigenvalues --   -0.53581  -0.52550  -0.51127  -0.49248  -0.48949
 Alpha  occ. eigenvalues --   -0.47787  -0.46279  -0.43902  -0.43466  -0.42930
 Alpha  occ. eigenvalues --   -0.42806  -0.41488  -0.41005  -0.40640  -0.40214
 Alpha  occ. eigenvalues --   -0.38172  -0.36314  -0.34026  -0.33612  -0.29743
 Alpha virt. eigenvalues --   -0.02964  -0.00702  -0.00496   0.01524   0.01881
 Alpha virt. eigenvalues --    0.02735   0.02937   0.03223   0.03691   0.04229
 Alpha virt. eigenvalues --    0.04491   0.04744   0.05574   0.06054   0.06546

 Mulliken charges:
               1
     1  C   -0.223304
     2  N   -0.364439
     3  C    0.166505
     4  O   -0.356845
     5  N   -0.316762
     6  C   -0.514705
     7  C   -0.139788
     8  C   -1.033172
     9  C   -0.160775
    10  C   -0.079399
    11  C   -0.131241
    12  C   -0.347145
    13  C   -0.769047
    14  H    0.373716
    15  H    0.358806
    16  H    0.272056
    17  H    0.271936
    18  H    0.265839
    19  H    0.244189
    20  H    0.266521
    21  H    0.274217
    22  H    0.264933
    23  H    0.317166
    24  C    0.042383
    25  H    0.312667
    26  H    0.259954
    27  F   -0.040221
    28  F   -0.066722
    29  F   -0.035525
    30  S    0.737208
    31  O   -0.072900
    32  O   -0.089926
    33  H    0.313820
 Sum of Mulliken charges =  -0.00000

 Dipole moment (field-independent basis, Debye):
    X=              9.8719    Y=              4.1222    Z=              2.8602  Tot=             11.0737
 Quadrupole moment (field-independent basis, Debye-Ang):
   XX=           -120.8091   YY=           -120.8023   ZZ=           -129.8011
   XY=             16.1889   XZ=             -5.7399   YZ=              2.3759

  Exact polarizability: 289.112  -1.188 174.587  10.232  17.043 135.739
 Approx polarizability: 251.554  -1.011 216.613  11.377  25.200 160.635

                      1                      2                      3
                      A                      A                      A
 Frequencies --      8.4357                21.9957                37.1224
 Red. masses --      3.9480                 3.7131                 4.5645
 Frc consts  --      0.0002                 0.0011                 0.0037
 IR Inten    --      0.8894                 2.4535                 9.6035

                      4                      5                      6
                      A                      A                      A
 Frequencies --     39.0692                52.6793                55.5893
 Red. masses --     11.2940                 4.0519                 4.2748
 Frc consts  --      0.0102                 0.0066                 0.0078
 IR Inten    --      1.2062                 1.6937                 0.5280

                      7                      8                      9
                      A                      A                      A
 Frequencies --     62.3946                78.6220               132.3909
 Red. masses --      5.3778                 3.2320                 5.8638
 Frc consts  --      0.0123                 0.0118                 0.0606
 IR Inten    --      0.2244                 3.1520                 6.8013

                     10                     11                     12
                      A                      A                      A
 Frequencies --    149.9181               184.5760               188.3282
 Red. masses --      6.0935                 3.6733                 6.4773
 Frc consts  --      0.0807                 0.0737                 0.1354
 IR Inten    --      3.2312                 7.2777                 0.8872

                     13                     14                     15
                      A                      A                      A
 Frequencies --    199.4884               217.1262               241.4670
 Red. masses --     12.9801                 4.3686                 1.1241
 Frc consts  --      0.3043                 0.1213                 0.0386
 IR Inten    --      2.2924                10.0991                 0.1781

                     16                     17                     18
                      A                      A                      A
 Frequencies --    251.1783               300.8240               310.1516
 Red. masses --      8.8941                 2.2828                11.2482
 Frc consts  --      0.3306                 0.1217                 0.6375
 IR Inten    --     12.0549                41.7819                 0.4277

                     19                     20                     21
                      A                      A                      A
 Frequencies --    312.9991               329.4962               347.0337
 Red. masses --      2.3794                 5.7699                 4.8730
 Frc consts  --      0.1373                 0.3691                 0.3458
 IR Inten    --     49.1716                 1.2484                12.7567

                     22                     23                     24
                      A                      A                      A
 Frequencies --    356.1022               377.5215               421.2379
 Red. masses --      7.5303                 7.6787                 3.0359
 Frc consts  --      0.5626                 0.6448                 0.3174
 IR Inten    --      7.3850                 8.2650                 0.1809

                     25                     26                     27
                      A                      A                      A
 Frequencies --    449.0137               484.3157               514.4756
 Red. masses --      8.0188                 4.7468                 3.2224
 Frc consts  --      0.9525                 0.6560                 0.5025
 IR Inten    --      2.5906                45.1023                12.0043

                     28                     29                     30
                      A                      A                      A
 Frequencies --    531.7234               549.1497               565.6820
 Red. masses --     10.3332                 1.1974                17.1463
 Frc consts  --      1.7213                 0.2128                 3.2327
 IR Inten    --     27.6420               124.8685                 0.1111

                     31                     32                     33
                      A                      A                      A
 Frequencies --    579.9569               610.3786               638.7004
 Red. masses --      8.2547                 9.3609                 7.0936
 Frc consts  --      1.6359                 2.0548                 1.7049
 IR Inten    --     85.8555               235.3666                 0.9976

                     34                     35                     36
                      A                      A                      A
 Frequencies --    714.0566               730.7342               757.3132
 Red. masses --      6.6183                 3.8970                 1.1839
 Frc consts  --      1.9882                 1.2260                 0.4001
 IR Inten    --    131.9581                10.8204                10.6304

                     37                     38                     39
                      A                      A                      A
 Frequencies --    776.5352               784.7833               796.1934
 Red. masses --      5.0951                13.7156                 6.7649
 Frc consts  --      1.8102                 4.9770                 2.5267
 IR Inten    --      8.3428                11.6600                13.7764

                     40                     41                     42
                      A                      A                      A
 Frequencies --    841.1622               867.6760               872.8226
 Red. masses --      1.4165                 1.4628                 5.1986
 Frc consts  --      0.5905                 0.6489                 2.3334
 IR Inten    --     24.6064                34.4655                 5.5204

                     43                     44                     45
                      A                      A                      A
 Frequencies --    903.6168               933.6369               984.8471
 Red. masses --      1.1821                 1.7075                 1.3145
 Frc consts  --      0.5687                 0.8769                 0.7512
 IR Inten    --      2.5912                 6.0734                 0.7075

                     46                     47                     48
                      A                      A                      A
 Frequencies --   1010.6004              1025.0894              1046.4410
 Red. masses --      1.3336                 3.7410                 4.2271
 Frc consts  --      0.8025                 2.3161                 2.7272
 IR Inten    --      0.6587                18.8850                 6.9562

                     49                     50                     51
                      A                      A                      A
 Frequencies --   1077.2078              1097.2578              1142.0793
 Red. masses --      2.6378                 4.3968                 2.9519
 Frc consts  --      1.8034                 3.1189                 2.2685
 IR Inten    --      5.8741               153.6549                11.9975

                     52                     53                     54
                      A                      A                      A
 Frequencies --   1151.7905              1166.2464              1168.8113
 Red. masses --      3.7400                 1.8964                 1.7076
 Frc consts  --      2.9233                 1.5197                 1.3744
 IR Inten    --    477.9293                 6.7257                32.4452

                     55                     56                     57
                      A                      A                      A
 Frequencies --   1183.1424              1214.1100              1231.8845
 Red. masses --      1.7437                 2.1586                 2.5546
 Frc consts  --      1.4381                 1.8747                 2.2841
 IR Inten    --      3.1524               339.0016                54.3427

                     58                     59                     60
                      A                      A                      A
 Frequencies --   1248.8586              1251.4580              1262.6261
 Red. masses --      1.7231                12.6244                12.6185
 Frc consts  --      1.5834                11.6491                11.8524
 IR Inten    --    399.2380               192.6370               359.0076

                     61                     62                     63
                      A                      A                      A
 Frequencies --   1287.5346              1307.9180              1333.7442
 Red. masses --      1.2357                 2.8672                 1.1561
 Frc consts  --      1.2069                 2.8899                 1.2117
 IR Inten    --     53.8285                 0.8003                20.1062

                     64                     65                     66
                      A                      A                      A
 Frequencies --   1341.8336              1348.8197              1357.8179
 Red. masses --      1.4216                 1.3515                 8.0818
 Frc consts  --      1.5081                 1.4487                 8.7789
 IR Inten    --     14.0161                 5.2731               224.3027

                     67                     68                     69
                      A                      A                      A
 Frequencies --   1368.4832              1424.2108              1431.1429
 Red. masses --      6.2022                 1.5110                 1.3223
 Frc consts  --      6.8434                 1.8058                 1.5957
 IR Inten    --    353.1422                 4.5528                 2.6711

                     70                     71                     72
                      A                      A                      A
 Frequencies --   1458.0722              1502.6576              1517.0848
 Red. masses --      3.0222                 1.0618                 1.0389
 Frc consts  --      3.7856                 1.4126                 1.4088
 IR Inten    --     68.8481                 8.4435                13.9581

                     73                     74                     75
                      A                      A                      A
 Frequencies --   1519.5138              1533.9765              1548.3615
 Red. masses --      1.0693                 1.0895                 2.2709
 Frc consts  --      1.4547                 1.5105                 3.2077
 IR Inten    --      4.3303                11.6569               328.6154

                     76                     77                     78
                      A                      A                      A
 Frequencies --   1567.6276              1590.0264              1658.5405
 Red. masses --      1.9076                 2.2418                 4.2810
 Frc consts  --      2.7620                 3.3393                 6.9381
 IR Inten    --    620.7728               594.4310               249.2906

                     79                     80                     81
                      A                      A                      A
 Frequencies --   1672.4237              1807.0610              3055.2348
 Red. masses --      4.2597                 7.3073                 1.0627
 Frc consts  --      7.0197                14.0589                 5.8443
 IR Inten    --     31.0254               394.4692                19.3081

                     82                     83                     84
                      A                      A                      A
 Frequencies --   3061.5305              3071.5636              3097.3631
 Red. masses --      1.0705                 1.0375                 1.0969
 Frc consts  --      5.9116                 5.7669                 6.2002
 IR Inten    --     34.8769                35.4459                15.7464

                     85                     86                     87
                      A                      A                      A
 Frequencies --   3130.9776              3141.3408              3148.0238
 Red. masses --      1.0987                 1.1030                 1.1022
 Frc consts  --      6.3459                 6.4132                 6.4357
 IR Inten    --      2.9355                58.3537                30.9534

                     88                     89                     90
                      A                      A                      A
 Frequencies --   3208.2547              3232.3195              3236.7752
 Red. masses --      1.0905                 1.0922                 1.0946
 Frc consts  --      6.6135                 6.7234                 6.7568
 IR Inten    --      6.6391                 1.8267                 2.7673

                     91                     92                     93
                      A                      A                      A
 Frequencies --   3294.3853              3626.9590              3642.2950
 Red. masses --      1.0929                 1.0784                 1.0774
 Frc consts  --      6.9881                 8.3581                 8.4214
 IR Inten    --     11.7597                 7.2613                98.9593

 - Thermochemistry -
 -------------------
 Temperature   298.150 Kelvin.  Pressure   1.00000 Atm.
 Atom     1 has atomic number  6 and mass  12.00000

 Molecular mass:   310.05990 amu.
 Principal axes and moments of inertia in atomic units:
                           1         2         3
     Eigenvalues --  1734.06672********************
           X            0.99998  -0.00410   0.00509
           Y            0.00302   0.98049   0.19653
           Z           -0.00579  -0.19651   0.98048
 This molecule is an asymmetric top.
 Rotational symmetry number  1.
 Warning -- assumption of classical behavior for rotation
           may cause significant error
 Rotational temperatures (Kelvin)      0.04995     0.00454     0.00450
 Rotational constants (GHZ):           1.04076     0.09461     0.09381
 Zero-point vibrational energy     648160.6 (Joules/Mol)
                                  154.91411 (Kcal/Mol)
 Warning -- explicit consideration of  32 degrees of freedom as
           vibrations may cause significant error
 Vibrational temperatures:     12.14    31.65    53.41    56.21    75.79
          (Kelvin)             79.98    89.77   113.12   190.48   215.70
                              265.56   270.96   287.02   312.40   347.42
                              361.39   432.82   446.24   450.34   474.07
                              499.30   512.35   543.17   606.07   646.03
                              696.82   740.21   765.03   790.10   813.89
                              834.43   878.20   918.95  1027.37  1051.36
                             1089.60  1117.26  1129.13  1145.54  1210.24
                             1248.39  1255.80  1300.10  1343.29  1416.97
                             1454.03  1474.87  1505.59  1549.86  1578.71
                             1643.20  1657.17  1677.97  1681.66  1702.28
                             1746.83  1772.40  1796.83  1800.57  1816.64
                             1852.47  1881.80  1918.96  1930.60  1940.65
                             1953.59  1968.94  2049.12  2059.09  2097.84
                             2161.99  2182.74  2186.24  2207.05  2227.74
                             2255.46  2287.69  2386.27  2406.24  2599.95
                             4395.80  4404.85  4419.29  4456.41  4504.77
                             4519.68  4529.30  4615.96  4650.58  4656.99
                             4739.88  5218.38  5240.44

 Zero-point correction=                           0.246871 (Hartree/Particle)
 Thermal correction to Energy=                    0.267070
 Thermal correction to Enthalpy=                  0.268014
 Thermal correction to Gibbs Free Energy=         0.193469
 Sum of electronic and zero-point Energies=          -1459.506054
 Sum of electronic and thermal Energies=             -1459.485855
 Sum of electronic and thermal Enthalpies=           -1459.484911
 Sum of electronic and thermal Free Energies=        -1459.559457

                     E (Thermal)             CV                S
                      KCal/Mol        Cal/Mol-Kelvin    Cal/Mol-Kelvin
 Total                  167.589             72.311            156.895
 Electronic               0.000              0.000              0.000
 Translational            0.889              2.981             43.091
 Rotational               0.889              2.981             34.808
 Vibrational            165.812             66.349             78.996
 Vibration     1          0.593              1.987              8.349
 Vibration     2          0.593              1.985              6.445
 Vibration     3          0.594              1.982              5.407
 Vibration     4          0.594              1.981              5.306
 Vibration     5          0.596              1.977              4.714
 Vibration     6          0.596              1.975              4.608
 Vibration     7          0.597              1.972              4.380
 Vibration     8          0.600              1.964              3.925
 Vibration     9          0.613              1.921              2.911
 Vibration    10          0.618              1.903              2.673
 Vibration    11          0.631              1.861              2.282
 Vibration    12          0.633              1.856              2.244
 Vibration    13          0.638              1.841              2.138
 Vibration    14          0.646              1.815              1.983
 Vibration    15          0.658              1.777              1.792
 Vibration    16          0.663              1.761              1.722
 Vibration    17          0.693              1.672              1.412
 Vibration    18          0.699              1.654              1.362
 Vibration    19          0.701              1.649              1.346
 Vibration    20          0.712              1.617              1.263
 Vibration    21          0.725              1.581              1.180
 Vibration    22          0.732              1.563              1.139
 Vibration    23          0.748              1.518              1.049
 Vibration    24          0.784              1.424              0.888
 Vibration    25          0.808              1.363              0.799
 Vibration    26          0.840              1.285              0.699
 Vibration    27          0.870              1.218              0.623
 Vibration    28          0.887              1.180              0.583
 Vibration    29          0.904              1.142              0.546
 Vibration    30          0.922              1.106              0.513
 Vibration    31          0.937              1.075              0.485
 Vibration    32          0.969              1.010              0.432

 Optimization completed on the basis of negligible forces.
    -- Stationary point found.
 Normal termination of Gaussian 09 at Thu Nov 14 11:10:39 2019.
