 Gaussian 16, Revision C.01,
 Gaussian 16:  ES64L-G16RevC.01  3-Jul-2019

 ---------------------------------------------------------------------
 # DSDPBEP86/AUG-cc-PVTZ SCF=Tight INT(grid=ultrafine) MaxDisk=60000MB
 ---------------------------------------------------------------------

 --------------------------
 CP21.DSDPBEP86_AUG-cc-PVTZ
 --------------------------
 Symbolic Z-matrix:
 Charge =  0 Multiplicity = 1

                         Standard orientation:
 ---------------------------------------------------------------------
 Center     Atomic      Atomic             Coordinates (Angstroms)
 Number     Number       Type             X           Y           Z
 ---------------------------------------------------------------------
      1          6           0        0.919378    0.623723   -0.075535
      2          7           0        2.282153    0.808804    0.143034
      3          6           0        3.312255   -0.103084   -0.095098
      4          8           0        3.132667   -1.235924   -0.481205
      5          7           0        4.552880    0.406523    0.186077
      6          6           0        5.731804   -0.399281   -0.108239
      7          6           0        6.977488    0.246923    0.479613
      8          6           0        8.225503   -0.581743    0.191993
      9          6           0        0.388366   -0.486841   -0.748781
     10          6           0       -0.980601   -0.574616   -0.943309
     11          6           0       -1.815860    0.431989   -0.469642
     12          6           0       -1.306019    1.541342    0.199858
     13          6           0        0.058030    1.630487    0.392509
     14          1           0        2.527685    1.643830    0.653698
     15          1           0        4.676427    1.408513    0.165936
     16          1           0        5.842691   -0.538549   -1.189988
     17          1           0        5.571315   -1.388149    0.324201
     18          1           0        6.841640    0.366684    1.558532
     19          1           0        7.101977    1.253025    0.061683
     20          1           0        8.138094   -1.583137    0.619814
     21          1           0        9.115873   -0.115403    0.615934
     22          1           0        8.387009   -0.692542   -0.882861
     23          1           0        1.043061   -1.264592   -1.108727
     24          6           0       -4.061462   -0.652882    0.840105
     25          1           0       -1.973287    2.320174    0.550045
     26          1           0        0.469610    2.493132    0.906763
     27          9           0       -3.727981    0.033931    1.925609
     28          9           0       -5.369795   -0.836101    0.821999
     29          9           0       -3.451435   -1.829998    0.871361
     30         16           0       -3.554721    0.289021   -0.690019
     31          8           0       -3.841595   -0.602477   -1.793282
     32          8           0       -4.173365    1.590845   -0.552706
     33          1           0       -1.403847   -1.420750   -1.472512
 ---------------------------------------------------------------------

 SCF Done:  E(RDSDPBEP86) =  -1456.37013011     A.U. after   14 cycles
 E2(DSDPBEP86) =    -0.1938724889D+01 E(DSDPBEP86) =    -0.14583088549963D+04

 The electronic state is 1-A.
 Alpha  occ. eigenvalues --  -90.99988 -25.73758 -25.73726 -25.73587 -20.01469
 Alpha  occ. eigenvalues --  -20.01436 -19.98889 -15.14633 -15.12257 -11.11350
 Alpha  occ. eigenvalues --  -10.98280 -10.91349 -10.86970 -10.86658 -10.86465
 Alpha  occ. eigenvalues --  -10.86317 -10.85330 -10.84161 -10.83489 -10.82054
 Alpha  occ. eigenvalues --   -8.77285  -6.56110  -6.56021  -6.56003  -1.60583
 Alpha  occ. eigenvalues --   -1.51127  -1.51119  -1.34188  -1.29865  -1.23480
 Alpha  occ. eigenvalues --   -1.17489  -1.13673  -1.07488  -0.98237  -0.96318
 Alpha  occ. eigenvalues --   -0.95536  -0.92193  -0.86796  -0.83645  -0.80191
 Alpha  occ. eigenvalues --   -0.78913  -0.76597  -0.76580  -0.75749  -0.74519
 Alpha  occ. eigenvalues --   -0.72029  -0.70092  -0.68235  -0.65194  -0.64417
 Alpha  occ. eigenvalues --   -0.63691  -0.61715  -0.60852  -0.60331  -0.60110
 Alpha  occ. eigenvalues --   -0.59434  -0.59202  -0.58318  -0.58310  -0.57506
 Alpha  occ. eigenvalues --   -0.57399  -0.56803  -0.55441  -0.53100  -0.52820
 Alpha  occ. eigenvalues --   -0.51447  -0.49447  -0.47744  -0.47403  -0.45583
 Alpha  occ. eigenvalues --   -0.45544  -0.45314  -0.44688  -0.43247  -0.42987
 Alpha  occ. eigenvalues --   -0.40834  -0.39875  -0.37128  -0.34606  -0.31355
 Alpha virt. eigenvalues --   -0.00224   0.01186   0.01248   0.02107   0.02224
 Alpha virt. eigenvalues --    0.02807   0.03421   0.03432   0.04216   0.04342
 Alpha virt. eigenvalues --    0.04737   0.05240   0.05370   0.05857   0.06302

 Mulliken charges:
               1
     1  C    0.879500
     2  N   -0.353679
     3  C    0.163875
     4  O   -0.782326
     5  N   -0.081452
     6  C   -0.126063
     7  C   -0.413034
     8  C   -0.979749
     9  C   -0.504561
    10  C   -0.698698
    11  C    0.720206
    12  C   -0.614505
    13  C   -0.648045
    14  H    0.014019
    15  H    0.060696
    16  H    0.288141
    17  H    0.310002
    18  H    0.252761
    19  H    0.235296
    20  H    0.278000
    21  H    0.277374
    22  H    0.275389
    23  H    0.585271
    24  C    1.008913
    25  H    0.405384
    26  H    0.338395
    27  F   -0.395536
    28  F   -0.364857
    29  F   -0.393509
    30  S    1.911545
    31  O   -1.004664
    32  O   -1.009826
    33  H    0.365737
 Sum of Mulliken charges =  -0.00000

 Dipole moment (field-independent basis, Debye):
    X=              8.6657    Y=              3.1809    Z=              2.5609  Tot=              9.5797
 Quadrupole moment (field-independent basis, Debye-Ang):
   XX=           -120.9702   YY=           -121.1492   ZZ=           -127.5983
   XY=             14.7002   XZ=             -5.0900   YZ=              2.6003

 Normal termination of Gaussian 16 at Wed Sep  9 21:27:09 2020.
